<?xml version="1.0"?>
<VTKFile type="UnstructuredGrid"  version="0.1"  >
<UnstructuredGrid>
<Piece  NumberOfPoints="989" NumberOfCells="1856">
<Points>
<DataArray  type="Float64"  NumberOfComponents="3"  format="ascii">0 0.1 0  1 0.5 0  1 0 0  0.5 0 0  0.5 0.1 0  0 0.5 0  0.3999999999999999 0.1 0  0.3000000000006934 0.1 0  0.2000000000008322 0.1 0  0.1000000000004161 0.1 0  0 0.1999999999997547 0  0 0.2999999999994712 0  0 0.3999999999997302 0  1 0.09999999999977893 0  1 0.1999999999994874 0  1 0.2999999999994734 0  1 0.3999999999997367 0  0.8999999999995836 0.5 0  0.7999999999999998 0.5 0  0.7000000000006934 0.5 0  0.6000000000013869 0.5 0  0.5000000000020587 0.5 0  0.4000000000016644 0.5 0  0.3000000000012483 0.5 0  0.2000000000008322 0.5 0  0.100000000000416 0.5 0  0.5999999999999998 0 0  0.6999999999999998 0 0  0.7999999999999998 0 0  0.8999999999999999 0 0  0.7500000000003465 0.2500000000004778 0  0.3543391325463663 0.2991924483250604 0  0.553378378378697 0.3020270270273037 0  0.1787891732531009 0.2659903004385146 0  0.6466255338365724 0.1445573283846343 0  0.8562500000000254 0.1437500000000713 0  0.856098325074891 0.361486283316847 0  0.6816736830075278 0.3648211388640052 0  0.448159880464739 0.2121637169551877 0  0.4442982423584978 0.391753795319108 0  0.2715790559184047 0.3791523269473472 0  0.1150718967116154 0.3810596070614992 0  0.273896361605391 0.2226672926296658 0  0.7555224852078926 0.1020686894856464 0  0.8979035535853922 0.2559272925043116 0  0.6445849552000902 0.2491650448004766 0  0.5478043236843367 0.4007980506679818 0  0.352903507247834 0.4123446403902193 0  0.5496252119258873 0.198892274868335 0  0.1025000000000628 0.2025000000000793 0  0.7612026559354884 0.4139216440830358 0  0.3577922882813261 0.1869645025636818 0  0.08583994585393254 0.2985459840157004 0  0.1890807548202245 0.1872353521459373 0  0.5835416666668073 0.0835416666668073 0  0.9164583333332904 0.08354166666667312 0  0.9164583333334675 0.4164583333334926 0  0.2547419831776344 0.2996478550002504 0  0.4710860689343058 0.3007911402439354 0  0.781407901234509 0.3188456882028318 0  0.7208816921369663 0.1846110001839818 0  0.8128018695329834 0.2144926517372858 0  0.649632136184474 0.433223864690338 0  0.9327539062502878 0.3399544270834451 0  0.8440199532439595 0.06626464909321926 0  0.658985938888213 0.06680419985703676 0  0.9341223773837415 0.1566437918340645 0  0.1841698230674055 0.4236601210592508 0  0.8467518628686861 0.4383732521466751 0  0.06619318181815657 0.4338068181818928 0  0.1830453437295036 0.3453722748296045 0  0.6216450770400792 0.3451346442005304 0  0.6969143846794638 0.2973176370269194 0  0.05244047619066258 0.152440476190348 0  0.1945403774105283 0.1436176760729687 0  0.2445403774104589 0.1436176760729687 0  0.2500000000007628 0.1 0  0.1920849115341189 0.4618300605296254 0  0.2420849115343269 0.4618300605296254 0  0.2500000000010403 0.5 0  0.2314885582128077 0.2049513223878016 0  0.2869481808030422 0.1613336463148329 0  0.4240799402323694 0.1560818584775939 0  0.4740799402323695 0.1560818584775939 0  0.45 0.1 0  0.2278744394929051 0.401406224003299 0  0.2857895279598265 0.4395761634736736 0  0.4221491211800811 0.445876897659554 0  0.4721491211802782 0.445876897659554 0  0.4500000000018616 0.5 0  0.100455921282774 0.3398027955385998 0  0.04291997292696627 0.3492729920077153 0  0.0575359483558077 0.3905298035306147 0  0.7971048853837461 0.2666691699700588 0  0.8553527115591878 0.2352099721207987 0  0.8396557274099505 0.2873864903535717 0  0.8187531131547 0.3401659857598394 0  0.8770009393301417 0.3087067879105793 0  0.7841621773704379 0.1582806706114661 0  0.8345259347665044 0.1791213258686785 0  0.805886242603959 0.1229093447428588 0  0.7668417808349748 0.1995518259606338 0  0.7382020886724294 0.1433398448348141 0  0.04291997292696627 0.2992729920075858 0  0 0.3499999999996007 0  0.4988925461953131 0.2055279959117614 0  0.5248126059629437 0.1494461374341675 0  0.3986008748031659 0.4020492178546636 0  0.3536213198971001 0.3557685443576398 0  0.399318687452432 0.3454731218220842 0  0.3122412815831194 0.3957484836687832 0  0.3129590942323855 0.3391723876362038 0  0.4960512830214173 0.3962759229935449 0  0.5239021618431977 0.4503990253339909 0  0.5094451963093213 0.3507945954559586 0  0.4576921556464018 0.3462724677815217 0  0.5122322236565013 0.3014090836356196 0  0.5505913510315168 0.3514125388476428 0  0.3764517536247492 0.4561723201951097 0  0.4029760843730326 0.1995641097594348 0  0.3560657104138462 0.2430784754443711 0  0.4012495065055526 0.255678082640124 0  0.3264517536245412 0.4561723201951097 0  0.4596229746995224 0.2564774285995616 0  0.4127126007403361 0.2999917942844979 0  0.09416997292699766 0.2505229920078899 0  0.04291997292696627 0.2492729920077276 0  0.0512500000000314 0.201249999999917 0  0.5103556404300966 0.2498417075561352 0  0.5515017951522921 0.2504596509478194 0  0 0.2499999999996129 0  0.378896144140663 0.1434822512818409 0  0.2631605195480196 0.3394000909737988 0  0.3045405578620003 0.2994201516626554 0  0.7054173960599812 0.4235727543866869 0  0.6748160680925837 0.466611932345169 0  0.730601327968091 0.4569608220415179 0  0.948951776792696 0.2779636462518925 0  0.948951776792696 0.2279636462518995 0  1 0.2499999999994804 0  0.7777612426039462 0.0510343447428232 0  0.7277612426039461 0.0510343447428232 0  0.7499999999999998 0 0  0.09063253926488599 0.407433212621696 0  0.03309659090907829 0.4169034090908115 0  0.1457903774101436 0.1948676760730083 0  0.1445403774103203 0.1436176760729687 0  0.1012500000002395 0.1512500000000397 0  0.3158443249433586 0.2048158975966738 0  0.3141177470758786 0.2609298704773631 0  0.1500000000006242 0.1 0  0.3288961441410098 0.1434822512818409 0  0.7806013279677442 0.4569608220415179 0  0.7500000000003466 0.5 0  0.5665834392963474 0.1412169707675711 0  0.5417708333334037 0.09177083333340366 0  0.6656529095960009 0.3990225017771716 0  0.7214381694715082 0.3893713914735205 0  0.125181502442781 0.4287334696205718 0  0.08309659090928628 0.4669034090909464 0  0.1420849115339108 0.4618300605296254 0  0.5971050835629887 0.2240286598344058 0  0.5989816667893936 0.2755960359138901 0  0.1496208598895105 0.402359864060375 0  0.6150836002516898 0.1140494975257208 0  0.5981253728812299 0.1717248016264847 0  0.6456052445183313 0.1968611865925555 0  0.9582291666666451 0.09177083333322603 0  0.9582291666666451 0.04177083333333656 0  1 0.04999999999988947 0  0.9082291666666451 0.04177083333333656 0  0.95 0 0  0.5917708333334035 0.04177083333340365 0  0.5417708333334037 0.04177083333340365 0  0.5499999999999998 0 0  0.5 0.05 0  0.9082291666665255 0.4582291666667463 0  0.9582291666667337 0.4582291666667463 0  0.9499999999997918 0.5 0  0.9582291666667337 0.4082291666666146 0  1 0.4499999999998683 0  0.5739021618428618 0.4503990253339909 0  0.5500000000017228 0.5 0  0.3500000000014564 0.5 0  0.6592797308597715 0.3212261406137249 0  0.670749669939777 0.273241340913698 0  0.6331150161200847 0.2971498445005035 0  0.2643191723915127 0.2611575738149581 0  0.1839349640366627 0.226612826292226 0  0.2263427674292459 0.2443287965340902 0  0.3500000000003466 0.1 0  0.7713052785849988 0.3663836661429338 0  0.7315407921210184 0.3418334135334185 0  0.5875117277093881 0.323580835613917 0  0.2167655782153677 0.2828190777193825 0  0.1500000000006241 0.5 0  0.9160129654845668 0.206285542169188 0  0.9670611886918707 0.1783218959167759 0  0.8951861886918835 0.1501968959170679 0  0.8770767767927088 0.1998386462521914 0  0.91532872991784 0.2979408597938784 0  0.8944261156625894 0.3507203552001461 0  0.7997712192259261 0.08416666928943284 0  0.8501349766219924 0.1050073245466453 0  0.9663769531251438 0.3199772135414592 0  0.7072542120480527 0.08443644467134158 0  0.6794929694441064 0.03340209992851838 0  0.6528057363623927 0.1056807641208355 0  0.7010740095222325 0.1233130089351404 0  0.8220099766219797 0.03313232454660963 0  0.7814009347666649 0.2322463258688818 0  0.7657039506174277 0.2844228441016548 0  0.6837536129867694 0.1645841642843081 0  0.7354408460686563 0.2173055000922298 0  0.7391611429569864 0.3080816626148756 0  0.6892940338434959 0.3310693879454623 0  0.6827333236685282 0.2168880224922292 0  0.6972924776002183 0.2495825224004772 0  0.5987182299344054 0.4170109576791599 0  0.6248160680929304 0.466611932345169 0  0.6516593800238035 0.3549778915322678 0  0.1323145595535167 0.2822681422271075 0  0.1406445866265819 0.234245150219297 0  0.1344426447917181 0.3219591294226525 0  0.1809172584913022 0.3056812876340596 0  0.1490586202205595 0.3632159409455519 0  0.6356386066122766 0.3891792544454342 0  0.584724700362208 0.3729663474342561 0  0.7234571923399051 0.2736588185136986 0  0.03309659090907829 0.4669034090909464 0  0.050000000000208 0.5 0  0 0.4499999999998651 0  0.9670611886918707 0.1283218959169217 0  1 0.1499999999996331 0  0.6294929694441064 0.03340209992851838 0  0.6499999999999998 0 0  0.8720099766219798 0.03313232454660963 0  0.8499999999999999 0 0  0.9663769531251438 0.3699772135415909 0  1 0.3499999999996051 0  0.823375931434343 0.4691866260733376 0  0.8733759314341348 0.4691866260733376 0  0.8499999999997917 0.5 0  0.8086504905051897 0.3877039636999414 0  0.07747023809536269 0.1774702380952137 0  0.02622023809533129 0.1762202380950514 0  0.07622023809553935 0.126220238095174 0  0.8039772594020873 0.4261474481148554 0  0.8514250939717886 0.399929767731761 0  0.6500000000010402 0.5 0  0.02622023809533129 0.126220238095174 0  0.05000000000020805 0.1 0  0 0.1499999999998773 0  0.9252903553585159 0.1200927292503688 0  0.6212638027775101 0.07517293326192204 0  0.880239143288625 0.0749031578799462 0  0.9246061197918776 0.3782063802084689 0  0.8816050981010768 0.4274157927400838 0  0.218893663453569 0.3225100649149274 0  0.2273121998239541 0.3622623008884758 0  0.8862783292041793 0.3889723083251698 0  0.8863541666666579 0.1136458333333722 0  0.1836075833984546 0.3845161979444277 0  0.2472701887056108 0.1218088380364843 0  0.2750000000007281 0.1 0  0.2722701887055762 0.1218088380364843 0  
[...]
<PointData  Scalars="f_39"> 
<DataArray  type="Float64"  Name="f_39"  format="ascii">-4.2612587795556522e-01  -2.1330646344012968e-01  -4.2661292688025937e-01  -4.2623939834575930e-01  -4.2604900627678965e-01  -2.1330646344012968e-01  -4.2611040375107623e-01  -4.2624061096444782e-01  -4.2579852085014525e-01  -4.2614351929641392e-01  -4.1168465986751179e-01  -3.6952983977526710e-01  -3.0293086115360585e-01  -4.2044648900799786e-01  -3.9973704093316131e-01  -3.6069956323137142e-01  -2.9968746523195222e-01  -2.1330646344012968e-01  -2.1330646344012968e-01  -2.1330646344012968e-01  -2.1330646344012968e-01  -2.1330646344012968e-01  -2.1330646344012968e-01  -2.1330646344012968e-01  -2.1330646344012968e-01  -2.1330646344012968e-01  -4.2623782476205924e-01  -4.2631782704567306e-01  -4.2638893393173033e-01  -4.2645647102665901e-01  -3.8409650611559504e-01  -3.6999832550139788e-01  -3.6506445152733163e-01  -3.8687251569472086e-01  -4.1630675977817611e-01  -4.1359998196369985e-01  -3.2621347081035512e-01  -3.2518782225928416e-01  -4.0684695242424840e-01  -3.0872412958840162e-01  -3.1873189380898276e-01  -3.1724509394553313e-01  -4.0441392613973837e-01  -4.2077071709240171e-01  -3.8061809346697772e-01  -3.8696828044568943e-01  -3.0105265860040409e-01  -2.9278287690813132e-01  -4.0783319588625300e-01  -4.1081753125864423e-01  -2.8959801326393053e-01  -4.1484934400209450e-01  -3.7061831083447994e-01  -4.1498457013269818e-01  -4.2492811362205463e-01  -4.2234995271648101e-01  -2.8734158479344984e-01  -3.6982885908175389e-01  -3.6769487297049464e-01  -3.5178558827272099e-01  -4.0578777583905912e-01  -3.9600439140042176e-01  -2.7440609148848621e-01  -3.3911365718441838e-01  -4.2391161872910865e-01  -4.2462033659843601e-01  -4.1073768010804534e-01  -2.8361837011567731e-01  -2.6972957199190700e-01  -2.7492362405001031e-01  -3.4232291519155988e-01  -3.3875311414399722e-01  -3.6405524083177782e-01  -4.2187228479389627e-01  -4.2318599921583239e-01  -4.2323669359965960e-01  -4.2602992280930330e-01  -2.4999426030251781e-01  -2.4999630411328078e-01  -2.1330646344012968e-01  -4.1012796372565241e-01  -4.2056272775056253e-01  -4.2122600283620831e-01  -4.2069215495721035e-01  -4.2614026952849060e-01  -3.0172743174295180e-01  -2.6996231021179784e-01  -2.6431043282585898e-01  -2.6422599314801842e-01  -2.1330646344012968e-01  -3.4596337484274620e-01  -3.3972834564302135e-01  -3.1016116964151119e-01  -3.7677583797928216e-01  -3.8864754357635739e-01  -3.6718385206509518e-01  -3.3944112643878782e-01  -3.5650994764097438e-01  -4.1113164838879923e-01  -4.0587428930581987e-01  -4.1748798851867536e-01  -4.0100300404299860e-01  -4.1464043893236441e-01  -3.7009159453671342e-01  -3.3923597466430733e-01  -4.0771286122329520e-01  -4.2032134846288227e-01  -3.0096128040509346e-01  -3.3514413073500982e-01  -3.4178294046947655e-01  -3.0608888644046500e-01  -3.4627350354418679e-01  -3.0490789035137184e-01  -2.6011833178234806e-01  -3.3703260352137693e-01  -3.4069992004875754e-01  -3.6646793910234388e-01  -3.3596804155648285e-01  -2.5512608742060899e-01  -4.1128254161258448e-01  -3.9651732503443782e-01  -3.9088202002578654e-01  -2.5515080001257567e-01  -3.8964394548811232e-01  -3.6898510369046533e-01  -3.9371136711740040e-01  -3.9421616358446043e-01  -4.1119779238253962e-01  -3.9118765187387738e-01  -3.8957671366030161e-01  -3.9389885835752358e-01  -4.2324335380161138e-01  -3.4619142788115576e-01  -3.6995083616420965e-01  -2.8212817750960634e-01  -2.4525779367255718e-01  -2.5390672686632004e-01  -3.7109548332710629e-01  -3.9086588540910960e-01  -3.8274335366539125e-01  -4.2502164209574822e-01  -4.2511386978302601e-01  -4.2634967954291386e-01  -2.9689158497675572e-01  -2.8922693161133178e-01  -4.1298338081573738e-01  -4.2321079365148562e-01  -4.2216321243131283e-01  -4.1010737659664886e-01  -3.8908558454826242e-01  -4.2599029226482454e-01  -4.2329319810711641e-01  -2.5386861905456781e-01  -2.1330646344012968e-01  -4.1983294316060488e-01  -4.2549990912618474e-01  -3.0132549203967668e-01  -3.0799811373475411e-01  -2.7929939881517318e-01  -2.4527697194180442e-01  -2.4998717219396266e-01  -3.9788073533694857e-01  -3.7700363987259089e-01  -3.0095466349659244e-01  -4.2161501943004936e-01  -4.1269085281408269e-01  -4.0455680854779813e-01  -4.2144350823982868e-01  -4.2553707738306623e-01  -4.2510596595042949e-01  -4.2549210515753433e-01  -4.2653737890245041e-01  -4.2604019870548715e-01  -4.2626556422371986e-01  -4.2624455370478792e-01  -4.2623912458831786e-01  -2.5270490369812149e-01  -2.5270643725196934e-01  -2.1330646344012968e-01  -2.9358944512464874e-01  -2.5989351253390652e-01  -2.5999179151565105e-01  -2.1330646344012968e-01  -2.1330646344012968e-01  -3.5215906481485659e-01  -3.7606400447233934e-01  -3.6559757432058859e-01  -3.8905012895688895e-01  -4.0300851472095839e-01  -3.9625535045342453e-01  -4.2610770238026169e-01  -3.2342832752422435e-01  -3.3914117099882257e-01  -3.5233156283931588e-01  -3.7874197320153369e-01  -2.1330646344012968e-01  -3.9796012695496952e-01  -4.0565466890314039e-01  -4.1219680290385674e-01  -4.0001393392192253e-01  -3.6179759359206914e-01  -3.3280126558572187e-01  -4.2244094613621519e-01  -4.1988324034630453e-01  -3.5036476623660273e-01  -4.2292540687397334e-01  -4.2588301862393851e-01  -4.2159746955814226e-01  -4.1849044128681756e-01  -4.2581476784396544e-01  -3.9033372984202847e-01  -3.6922362583220614e-01  -4.1140949091576096e-01  -3.9606097408286445e-01  -3.5792749433291793e-01  -3.4602187885675995e-01  -3.9739666029607990e-01  -3.8534738988315687e-01  -2.8793366531126419e-01  -2.4530907618158004e-01  -3.3202068496832937e-01  -3.7904858456688828e-01  -4.0020095762275804e-01  -3.5709979280029525e-01  -3.6656466230524465e-01  -3.3018161218729142e-01  -3.0883908382000957e-01  -3.2096466243211813e-01  -3.7473623910062881e-01  -2.4528789118165917e-01  -2.1330646344012968e-01  -2.6075173282581260e-01  -4.1621732212836238e-01  -4.1214010044059213e-01  -4.2600176294509284e-01  -4.2626984132588214e-01  -4.2583452885800621e-01  -4.2642540136298956e-01  -3.2050361802856447e-01  -3.3313450934429967e-01  -2.4283785368197647e-01  -2.4283386380469296e-01  -2.1330646344012968e-01  -3.0875757741514498e-01  -4.1726272644897311e-01  -4.1756801689551770e-01  -4.2500331772077227e-01  -2.7981526236582571e-01  -2.9984833953001577e-01  -2.1330646344012968e-01  -4.2500409384889137e-01  -4.2602028395249525e-01  -4.2235916950567348e-01  -4.1758495528945139e-01  -4.2464113336817449e-01  -4.2318642135307116e-01  -3.1504728361902845e-01  -2.7870298338303251e-01  -3.5674630626763665e-01  -3.3085886507317014e-01  -3.0766785754783771e-01  -4.1861099807284174e-01  -3.1472806378020424e-01  -4.2532448199863526e-01  -4.2610911613799918e-01  -4.2537853546449267e-01  -4.2526926412794896e-01  -4.2594681297732406e-01  -4.2522095656787806e-01  -4.2320494277444476e-01  -4.1976870411355194e-01  -4.1976058937884902e-01  -2.3202744121582702e-01  -2.1330646344012968e-01  -2.3202690279382449e-01  -2.3202704109953826e-01  -2.1330646344012968e-01  -2.3202535900720955e-01  -2.4999615275279738e-01  -2.6719659665922130e-01  -2.6719651271330674e-01  -4.2202123442966233e-01  -4.2471934859856852e-01  -4.1600143820260294e-01  -4.1377185894061319e-01  -4.0737695598066048e-01  -4.1799880609267537e-01  -4.1266267944840529e-01  -4.2478252991065862e-01  -4.2618414069295152e-01  -4.2454496385099566e-01  -4.2486391091352227e-01  -4.2612363844065065e-01  -4.2489661473181284e-01  -4.2103873852583351e-01  -4.1477679840881920e-01  -4.1515680073344563e-01  -2.6011506226230813e-01  -2.4259109079783081e-01  -2.8625079902685902e-01  -2.9535959406503176e-01  -3.1036791988865847e-01  -2.7686065116028324e-01  -2.9280795788460340e-01  -2.3958680764716933e-01  -2.1330646344012968e-01  -2.3957365853020018e-01  -2.3959701507229841e-01  -2.1330646344012968e-01  -2.3960402635014316e-01  -2.6427331605843613e-01  -2.8727482844887464e-01  -2.8736616481199739e-01  -3.2544602877109308e-01  -3.0654268986423217e-01  -3.2204143541725183e-01  -3.2880752452111500e-01  -3.1373999014171056e-01  -3.3211343782515784e-01  -3.4287477883384088e-01  -3.5591921212764999e-01  -3.5879471848217565e-01  -3.7862905173753852e-01  -3.7412831745038200e-01  -3.8471618219490150e-01  -3.7207501857340475e-01  -3.5973940376507507e-01  -3.6503168755560900e-01  -3.8294234814308181e-01  -3.9240602304525923e-01  -3.8707339446911060e-01  -3.4825382344586531e-01  -3.4216761897736947e-01  -3.3294119638164799e-01  -3.6196024526331744e-01  -3.6929894312201433e-01  -3.5410811513214835e-01  -3.4571762492147706e-01  -4.1235478982694934e-01  -4.1562675679754130e-01  -4.0999482525522252e-01  -4.1455142535508294e-01  -4.1919330565502039e-01  -4.1659068190672721e-01  -4.0858385528292229e-01  -4.0121663206326175e-01  -4.0428691361277269e-01  -4.1291809031075566e-01  -4.1800676907008966e-01  -4.0854847296605529e-01  -4.1059368342533409e-01  -4.0343095910010651e-01  -4.0644688508308502e-01  -3.9852415711326206e-01  -3.5542418658236319e-01  -3.5518022481244177e-01  -3.6983552963993682e-01  -3.3948021258343042e-01  -3.2179230803865561e-01  -3.5567253453185693e-01  -3.7034082869265667e-01  -4.2067052481713590e-01  -4.2422203403557668e-01  -4.1503106166298570e-01  -4.0737819059375074e-01  -4.1503226334758259e-01  -4.1480349527889870e-01  -4.0784676319403784e-01  -3.3851880464944939e-01  -3.5650400613156830e-01  -3.5350916234807239e-01  -3.2229926383499219e-01  -3.2584138427142162e-01  -3.0489249664808549e-01  -3.1864887352408960e-01  -3.1489939181384985e-01  -2.9692889630784158e-01  -3.4079953949607200e-01  -3.5861021308157809e-01  -3.2711728050773597e-01  -3.3297068507570943e-01  -3.1248731327326112e-01  -3.2109203771949468e-01  -2.9952599648626976e-01  -2.6217684110045764e-01  -2.3742820674310627e-01  -2.8530619604773705e-01  -3.0682584051189238e-01  -2.8332407804690818e-01  -2.8133326072109610e-01  -3.0297679472612521e-01  -3.2348048287836040e-01  -3.2532854838136849e-01  -3.2159908968271783e-01  -3.1969522787468257e-01  -3.3888885424321141e-01  -3.5482348875272374e-01  -3.5304056323856342e-01  -3.5187371512966381e-01  -3.5125503897138477e-01  -3.6578973506360357e-01  -3.3650793632926151e-01  -3.1922762866389454e-01  -3.5247255024179502e-01  -3.6710278327664936e-01  -2.5975413959135074e-01  -2.3472459133497769e-01  -2.8316086339195440e-01  -2.7886703944159880e-01  -2.7449197935374148e-01  -3.9378355915505636e-01  -3.8103042908804596e-01  -3.8422892393531605e-01  -4.0210318410397067e-01  -3.9949198234083000e-01  -4.0917788626826346e-01  -4.0452028686900132e-01  -4.0676025177136454e-01  -4.1317356165989849e-01  -2.6262911221552560e-01  -2.3473370348153635e-01  -2.8856614138848735e-01  -2.8161776944384342e-01  -2.7451925871099547e-01  -3.8054202819093108e-01  -3.6950394027087075e-01  -3.9033384582165442e-01  -3.9885556448183179e-01  -3.7995452819949915e-01  -3.6838587103261389e-01  -3.7924657393340638e-01  -3.5601686846609054e-01  -3.4127449472391186e-01  -3.5546041366672676e-01  -4.0348589947288760e-01  -4.1140817329356638e-01  -4.0371951396997474e-01  -4.0326112531848035e-01  -4.1100764276490620e-01  -4.0303849632837813e-01  -3.9396594154889464e-01  -3.8315797089370784e-01  -3.8288200911622605e-01  -3.7887857149360749e-01  -3.7811244783688536e-01  -3.9040432799413849e-01  -3.9947954095893412e-01  -4.0036205255075208e-01  -3.7961084063460204e-01  -3.8029190754094028e-01  -3.9953507618144890e-01  -4.0003404251386732e-01  -3.9049600795238992e-01  -3.9405615105932712e-01  -4.0360569499578891e-01  -3.8274941687832409e-01  -3.8254740208790300e-01  -3.8295451347097559e-01  -4.2232364826310353e-01  -4.2538324750384726e-01  -4.1689067849090589e-01  -4.1840166954883984e-01  -4.1972836661695578e-01  -3.5859683150139843e-01  -3.6996911195873755e-01  -3.4624146003548573e-01  -3.3292325470940742e-01  -3.5856105717847553e-01  -3.6991139593081818e-01  -3.5850541404971054e-01  -2.4961642838037312e-01  -2.3422616737611088e-01  -2.2964355063380718e-01  -2.6836080290076741e-01  -2.7235392851851598e-01  -2.8588051165732908e-01  -2.6430346398355820e-01  -2.6017409277618758e-01  -2.7831278702689050e-01  -3.8691517370268325e-01  -3.9184385139961797e-01  -3.9547484252163645e-01  -3.7711338125815869e-01  -3.7237849038045479e-01  -3.6601295806568140e-01  -3.8162029872295888e-01  -3.8590843776486522e-01  -3.7595474061981005e-01  -4.2604101342854483e-01  -4.2633125556180163e-01  -4.2604439309949049e-01  -4.2604240474469079e-01  -4.2636879812703998e-01  -4.2604633683609128e-01  -4.2506223895321749e-01  -4.2338359629557110e-01  -4.2327399577858471e-01  -2.9988872499870622e-01  -2.9614385068816745e-01  -3.0360600822000305e-01  -3.0727472069382933e-01  -2.9307615453525870e-01  -2.8215802111939509e-01  -2.8610757948597154e-01  -4.2271394207602286e-01  -4.2507229989179957e-01  -4.2532722326457406e-01  -4.1823537556226631e-01  -4.1740522237080036e-01  -4.1192380995470890e-01  -4.1901903296188903e-01  -4.1975846981325826e-01  -4.1400174830163428e-01  -3.9292022805499743e-01  -3.7998807380164823e-01  -4.0063965468640916e-01  -3.9723183212205659e-01  -4.0736941561173179e-01  -4.0381649417140109e-01  -4.1261027184064314e-01  -4.2525910034448033e-01  -4.2593154502460151e-01  -4.2529506960059299e-01  -4.2604199084566702e-01  -4.2319523206835646e-01  -4.2204484455623315e-01  -4.2542902080508949e-01  -4.1600234072415665e-01  -4.1800467672105457e-01  -4.1977804864101720e-01  -2.3422052295105283e-01  -2.1330646344012968e-01  -2.3421612496421410e-01  -2.3422360451852786e-01  -2.1330646344012968e-01  -2.5388844624610674e-01  -2.7231060747911762e-01  -4.2384815472400350e-01  -4.2584239276364039e-01  -4.2010166470066990e-01  -4.1481181673830353e-01  -4.2343386010895934e-01  -4.2517949391872206e-01  -4.2307013626303408e-01  -3.0468777912881195e-01  -3.1674424882931101e-01  -3.1363843326032076e-01  -2.9544098629110949e-01  -2.9894883382324478e-01  -2.9187925498021422e-01  -2.8825131122302516e-01  -2.4763814173423318e-01  -2.3202095391755281e-01  -2.2957466796686876e-01  -2.6493905009933894e-01  -2.6718947303733809e-01  -2.8146061558937002e-01  -2.6267700306681174e-01  -2.6039972531115374e-01  -2.7712705085854300e-01  -3.8341985871333606e-01  -3.7131042475571929e-01  -3.8821067101177281e-01  -3.8220307728511105e-01  -3.9253261007165247e-01  -3.9397870367276100e-01  -4.0298846693575074e-01  -2.9892437080769452e-01  -3.0923835284227130e-01  -2.9031952206927303e-01  -2.9241112728179319e-01  -2.8821980826552918e-01  -4.1794696072978199e-01  -4.1460588479306770e-01  -4.1920678032188063e-01  -4.1652454061985300e-01  -4.1047018617873726e-01  -4.2078010573878438e-01  -4.2352421820210817e-01  -4.0874951977702434e-01  -4.1113476419709871e-01  -4.0140730723472295e-01  -3.9651349243623968e-01  -4.0606649178217358e-01  -4.2533644449782670e-01  -4.2622150827931216e-01  -4.2632099269051604e-01  -4.2356705878117840e-01  -4.2320015251150300e-01  -4.2095653313490128e-01  -4.2390699106424756e-01  -4.2422069877450741e-01  -4.2190716407084888e-01  -4.2629524010165143e-01  -4.2657034432937480e-01  -4.2626503730466381e-01  -4.2650201697054213e-01  -4.2623265905173913e-01  -4.2551538218222701e-01  -4.2420801401343489e-01  -4.2626605195580236e-01  -4.2624250493958293e-01  -4.2625688991533572e-01  -4.2624439282248433e-01  -4.2624293078542785e-01  -4.2620304330933650e-01  -4.2618181724341198e-01  -4.2595615170964468e-01  -4.2565126556928767e-01  -4.2626774757491148e-01  -4.2624194213324262e-01  -4.2621460745728801e-01  -4.2626270884495043e-01  -4.2610594245478950e-01  -2.3362260682178443e-01  -2.1330646344012968e-01  -2.3362423457673170e-01  -2.3362025660707428e-01  -2.1330646344012968e-01  -2.3361771092208716e-01  -2.5270583196013169e-01  -2.7059564068048142e-01  -2.7060111334608306e-01  -2.5632377020233055e-01  -2.3747977772398998e-01  -2.7731572296993168e-01  -2.8060966593139702e-01  -2.9665763418956032e-01  -2.7397779509980441e-01  -2.9048274352448550e-01  -2.3739540501318457e-01  -2.1330646344012968e-01  -2.3737570674341701e-01  -2.3741300276406266e-01  -2.1330646344012968e-01  -2.6005831884419567e-01  -2.8120189897683978e-01  -2.3472627750405936e-01  -2.1330646344012968e-01  -2.3472931406777292e-01  -2.1330646344012968e-01  -2.5513679074706036e-01  -3.7101112593230201e-01  -3.7695471148588255e-01  -3.8164894026791840e-01  -3.5901822094319974e-01  -3.5286604651490233e-01  -3.4564514296405890e-01  -3.6479201246863702e-01  -3.7020355605021948e-01  -3.5829587093144327e-01  -3.7999022896706569e-01  -3.8907931377052341e-01  -3.9721634139715278e-01  -3.7996682768765944e-01  -3.7992073765971590e-01  -3.9973796051340793e-01  -3.9171855031957276e-01  -3.9545264385344286e-01  -4.0371309201039640e-01  -4.0048524299481880e-01  -4.0672570746455239e-01  -4.0952451719641147e-01  -4.2538790160560436e-01  -4.2610181117403839e-01  -4.2540254765946472e-01  -4.2613761928393523e-01  -4.2326818067918898e-01  -3.2426361351634841e-01  -3.3234693274928950e-01  -3.1588966246586314e-01  -3.0720865074494275e-01  -3.3143317899970398e-01  -3.4560874387938711e-01  -3.3827350813054247e-01  -3.6536342776393216e-01  -3.5881385401422949e-01  -3.7139830786179789e-01  -3.5921478821527908e-01  -3.4564010268775702e-01  -3.8797742459426032e-01  -3.8290251350073057e-01  -3.9274946332077387e-01  -3.8404488877758919e-01  -3.7438959982619685e-01  -2.3202492238914219e-01  -2.1330646344012968e-01  -2.3202307812005329e-01  -2.1330646344012968e-01  -2.4999179508295905e-01  -3.9882779707588001e-01  -4.0279958299361562e-01  -3.9452207254426630e-01  -3.8987944713852446e-01  -4.0196755661704542e-01  -4.0830261469610091e-01  -4.0489841906735213e-01  -4.0663855444827962e-01  -4.0750030555221101e-01  -4.1290262876632716e-01  -3.9898917628628827e-01  -3.9106972295976461e-01  -4.0577181003992324e-01  -4.1147882773991229e-01  -3.4515839119445990e-01  -3.2953537942383659e-01  -3.5917995732612207e-01  -3.7166552501148109e-01  -3.4809036785766140e-01  -3.3599999653188894e-01  -3.5096489478477488e-01  -4.1872164530747347e-01  -4.1703764448335134e-01  -4.2024553519680807e-01  -4.2161313101088344e-01  -4.2124039246379841e-01  -4.2216632470922738e-01  -4.2321540476199371e-01  -3.6121229262430171e-01  -3.5563931650175995e-01  -3.6655068417754927e-01  -3.5619727733249584e-01  -3.4486317771027547e-01  -4.2555564108332955e-01  -4.2620053007660369e-01  -4.2416454452280994e-01  -4.2189019506028774e-01  -4.2482600554744582e-01  -4.2536183909967140e-01  -4.2384239545674640e-01  -4.2010212769084787e-01  -4.1738959988449342e-01  -4.1927308959133147e-01  -4.2098127493408843e-01  -4.1961520681827269e-01  -4.2223213691384520e-01  -4.2335595958734717e-01  -4.2545123564880100e-01  -4.2625369822291792e-01  -4.2392143150577127e-01  -4.2451582924384307e-01  -4.2504424457551404e-01  -3.8049581269601906e-01  -3.7698478665150609e-01  -3.8729700868516764e-01  -3.7307838556766798e-01  -3.6082325356483708e-01  -3.8385758196127984e-01  -3.9323074917475426e-01  -4.0303246375761398e-01  -3.9462882070825067e-01  -3.9801003209577163e-01  -4.1529700095930733e-01  -4.1395063430611057e-01  -4.1665053935204432e-01  -4.1302985379310775e-01  -4.0869185575492095e-01  -3.9321345007285985e-01  -3.9036633126613735e-01  -3.9858896396852062e-01  -4.0120100131346537e-01  -3.9593202775262548e-01  -3.4258327830904978e-01  -3.3596096688368948e-01  -3.4887277544964024e-01  -3.5485512226145632e-01  -3.5212948221319490e-01  -3.5538528145949955e-01  -3.6099726169237684e-01  -3.9095901789916498e-01  -3.8469155944505201e-01  -3.9165259837865596e-01  -3.8610218924167578e-01  -3.9245517513042938e-01  -3.9667034098869269e-01  -4.0183181033906712e-01  -4.0819613254703713e-01  -4.0105335979718004e-01  -4.0509409296132581e-01  -2.5271288453226459e-01  -2.2966210324861411e-01  -2.7432295345235563e-01  -2.9453394189391313e-01  -2.6733515173215783e-01  -2.6023070555726990e-01  -2.8123255236646388e-01  -3.3920927764809239e-01  -3.2862143695914287e-01  -3.4243771895498398e-01  -3.3539537318971269e-01  -3.4909840128918773e-01  -3.9037515544769086e-01  -3.9387173706089618e-01  -3.8304567117984856e-01  -3.9704231059149553e-01  -4.0585390300449081e-01  -3.867109610625