<?xml version="1.0"?>
<VTKFile type="UnstructuredGrid"  version="0.1"  >
<UnstructuredGrid>
<Piece  NumberOfPoints="74" NumberOfCells="116">
<Points>
<DataArray  type="Float64"  NumberOfComponents="3"  format="ascii">0 0.1 0  1 0.5 0  1 0 0  0.5 0 0  0.5 0.1 0  0 0.5 0  0.3999999999999999 0.1 0  0.3000000000006934 0.1 0  0.2000000000008322 0.1 0  0.1000000000004161 0.1 0  0 0.1999999999997547 0  0 0.2999999999994712 0  0 0.3999999999997302 0  1 0.09999999999977893 0  1 0.1999999999994874 0  1 0.2999999999994734 0  1 0.3999999999997367 0  0.8999999999995836 0.5 0  0.7999999999999998 0.5 0  0.7000000000006934 0.5 0  0.6000000000013869 0.5 0  0.5000000000020587 0.5 0  0.4000000000016644 0.5 0  0.3000000000012483 0.5 0  0.2000000000008322 0.5 0  0.100000000000416 0.5 0  0.5999999999999998 0 0  0.6999999999999998 0 0  0.7999999999999998 0 0  0.8999999999999999 0 0  0.7500000000003465 0.2500000000004778 0  0.3543391325463663 0.2991924483250604 0  0.553378378378697 0.3020270270273037 0  0.1787891732531009 0.2659903004385146 0  0.6466255338365724 0.1445573283846343 0  0.8562500000000254 0.1437500000000713 0  0.856098325074891 0.361486283316847 0  0.6816736830075278 0.3648211388640052 0  0.448159880464739 0.2121637169551877 0  0.4442982423584978 0.391753795319108 0  0.2715790559184047 0.3791523269473472 0  0.1150718967116154 0.3810596070614992 0  0.273896361605391 0.2226672926296658 0  0.7555224852078926 0.1020686894856464 0  0.8979035535853922 0.2559272925043116 0  0.6445849552000902 0.2491650448004766 0  0.5478043236843367 0.4007980506679818 0  0.352903507247834 0.4123446403902193 0  0.5496252119258873 0.198892274868335 0  0.1025000000000628 0.2025000000000793 0  0.7612026559354884 0.4139216440830358 0  0.3577922882813261 0.1869645025636818 0  0.08583994585393254 0.2985459840157004 0  0.1890807548202245 0.1872353521459373 0  0.5835416666668073 0.0835416666668073 0  0.9164583333332904 0.08354166666667312 0  0.9164583333334675 0.4164583333334926 0  0.2547419831776344 0.2996478550002504 0  0.4710860689343058 0.3007911402439354 0  0.781407901234509 0.3188456882028318 0  0.7208816921369663 0.1846110001839818 0  0.8128018695329834 0.2144926517372858 0  0.649632136184474 0.433223864690338 0  0.9327539062502878 0.3399544270834451 0  0.8440199532439595 0.06626464909321926 0  0.658985938888213 0.06680419985703676 0  0.9341223773837415 0.1566437918340645 0  0.1841698230674055 0.4236601210592508 0  0.8467518628686861 0.4383732521466751 0  0.06619318181815657 0.4338068181818928 0  0.1830453437295036 0.3453722748296045 0  0.6216450770400792 0.3451346442005304 0  0.6969143846794638 0.2973176370269194 0  0.05244047619066258 0.152440476190348 0  </DataArray>
</Points>
<Cells>
<DataArray  type="UInt32"  Name="connectivity"  format="ascii">7 8 53  23 24 67  7 42 53  4 6 38  23 40 67  21 22 39  12 41 52  44 59 61  36 44 59  35 43 61  43 60 61  11 12 52  4 38 48  31 39 47  31 40 47  21 39 46  39 46 58  32 46 58  22 39 47  31 38 51  23 40 47  31 38 58  31 39 58  10 49 52  32 48 58  38 48 58  10 11 52  6 38 51  31 40 57  19 50 62  14 15 44  27 28 43  12 41 69  9 49 53  31 42 51  8 9 53  7 42 51  18 19 50  4 48 54  37 50 62  25 67 69  32 45 48  41 67 69  34 48 54  34 45 48  2 13 55  2 29 55  3 26 54  3 4 54  1 17 56  1 16 56  20 21 46  22 23 47  45 71 72  31 42 57  33 42 53  6 7 51  37 50 59  32 45 71  33 42 57  24 25 67  14 44 66  35 44 66  36 44 63  35 43 64  15 44 63  27 43 65  34 43 65  28 43 64  30 59 61  35 44 61  34 43 60  30 60 61  37 59 72  30 45 60  34 45 60  20 46 62  37 71 72  33 49 52  33 49 53  33 52 70  41 52 70  46 62 71  30 45 72  5 25 69  5 12 69  13 14 66  26 27 65  28 29 64  15 16 63  32 46 71  17 18 68  36 50 59  10 49 73  9 49 73  36 50 68  18 50 68  19 20 62  0 9 73  0 10 73  37 62 71  13 55 66  26 54 65  29 55 64  16 56 63  17 56 68  33 57 70  40 57 70  30 59 72  36 56 68  35 55 64  34 54 65  36 56 63  35 55 66  40 67 70  41 67 70  </DataArray>
<DataArray  type="UInt32"  Name="offsets"  format="ascii">3 6 9 12 15 18 21 24 27 30 33 36 39 42 45 48 51 54 57 60 63 66 69 72 75 78 81 84 87 90 93 96 99 102 105 108 111 114 117 120 123 126 129 132 135 138 141 144 147 150 153 156 159 162 165 168 171 174 177 180 183 186 189 192 195 198 201 204 207 210 213 216 219 222 225 228 231 234 237 240 243 246 249 252 255 258 261 264 267 270 273 276 279 282 285 288 291 294 297 300 303 306 309 312 315 318 321 324 327 330 333 336 339 342 345 348 </DataArray>
<DataArray  type="UInt8"  Name="types"  format="ascii">5 5 5 5 5 5 5 5 5 5 5 5 5 5 5 5 5 5 5 5 5 5 5 5 5 5 5 5 5 5 5 5 5 5 5 5 5 5 5 5 5 5 5 5 5 5 5 5 5 5 5 5 5 5 5 5 5 5 5 5 5 5 5 5 5 5 5 5 5 5 5 5 5 5 5 5 5 5 5 5 5 5 5 5 5 5 5 5 5 5 5 5 5 5 5 5 5 5 5 5 5 5 5 5 5 5 5 5 5 5 5 5 5 5 5 5 </DataArray>
</Cells>
<PointData  Vectors="f_18-0"> 
<DataArray  type="Float64"  Name="f_18-0"  NumberOfComponents="3" format="ascii">0.0000000000000000e+00 0.0000000000000000e+00 0.0000000000000000e+00  9.9999999999999978e-01 0.0000000000000000e+00 0.0000000000000000e+00  0.0000000000000000e+00 0.0000000000000000e+00 0.0000000000000000e+00  0.0000000000000000e+00 0.0000000000000000e+00 0.0000000000000000e+00  0.0000000000000000e+00 0.0000000000000000e+00 0.0000000000000000e+00  9.9999999999999978e-01 -1.6351007602346683e-15 0.0000000000000000e+00  0.0000000000000000e+00 0.0000000000000000e+00 0.0000000000000000e+00  0.0000000000000000e+00 0.0000000000000000e+00 0.0000000000000000e+00  0.0000000000000000e+00 0.0000000000000000e+00 0.0000000000000000e+00  0.0000000000000000e+00 0.0000000000000000e+00 0.0000000000000000e+00  2.8605829440008523e-01 7.2675163654202418e-05 0.0000000000000000e+00  5.4831421122227297e-01 1.1778210101832782e-04 0.0000000000000000e+00  7.8641737363979169e-01 7.4623203895523519e-05 0.0000000000000000e+00  1.2946971977684840e-01 -1.3280395255281070e-03 0.0000000000000000e+00  2.9319387191987928e-01 -2.8445777676610207e-03 0.0000000000000000e+00  4.9298646658422218e-01 -2.7883621699471271e-03 0.0000000000000000e+00  7.2802094257942995e-01 -1.2604187863981410e-03 0.0000000000000000e+00  1.0000000000000000e+00 0.0000000000000000e+00 0.0000000000000000e+00  9.9999999999999989e-01 0.0000000000000000e+00 0.0000000000000000e+00  1.0000000000000000e+00 0.0000000000000000e+00 0.0000000000000000e+00  1.0000000000000000e+00 0.0000000000000000e+00 0.0000000000000000e+00  1.0000000000000000e+00 0.0000000000000000e+00 0.0000000000000000e+00  1.0000000000000000e+00 0.0000000000000000e+00 0.0000000000000000e+00  1.0000000000000000e+00 0.0000000000000000e+00 0.0000000000000000e+00  1.0000000000000000e+00 0.0000000000000000e+00 0.0000000000000000e+00  1.0000000000000000e+00 0.0000000000000000e+00 0.0000000000000000e+00  0.0000000000000000e+00 0.0000000000000000e+00 0.0000000000000000e+00  0.0000000000000000e+00 0.0000000000000000e+00 0.0000000000000000e+00  0.0000000000000000e+00 0.0000000000000000e+00 0.0000000000000000e+00  0.0000000000000000e+00 0.0000000000000000e+00 0.0000000000000000e+00  3.9061205657104375e-01 -1.6085386451641315e-02 0.0000000000000000e+00  5.4572929114957458e-01 -6.1446180714471738e-03 0.0000000000000000e+00  5.3190276085452581e-01 -2.6347728003221004e-02 0.0000000000000000e+00  4.6171344991044877e-01 -5.9236216886351977e-05 0.0000000000000000e+00  1.7447753281632536e-01 -2.8654428028257101e-02 0.0000000000000000e+00  1.9300973165420796e-01 -4.8421243540985471e-03 0.0000000000000000e+00  6.3689714110455498e-01 -3.8507680548718923e-03 0.0000000000000000e+00  6.5919090055538210e-01 -1.1573022422637271e-02 0.0000000000000000e+00  3.2931684106608927e-01 -2.2740551242778951e-02 0.0000000000000000e+00  7.5880929887588877e-01 -6.8065055421525225e-03 0.0000000000000000e+00  7.3835146067591262e-01 -1.0411072538642019e-03 0.0000000000000000e+00  7.4326957279519712e-01 9.3242069492992103e-05 0.0000000000000000e+00  3.4846399350231994e-01 -1.4417015562172683e-03 0.0000000000000000e+00  1.2104558556942054e-01 -7.7376568604590901e-03 0.0000000000000000e+00  4.0085679479140524e-01 -4.8823758000861549e-03 0.0000000000000000e+00  3.9504182312784902e-01 -2.9739512086979676e-02 0.0000000000000000e+00  7.6601946130824861e-01 -8.7385555745219043e-03 0.0000000000000000e+00  8.1179724959232247e-01 -1.9753058289093003e-03 0.0000000000000000e+00  2.8873872548090640e-01 -4.3724307222275036e-02 0.0000000000000000e+00  2.9283597500143621e-01 8.0715909267958807e-05 0.0000000000000000e+00  7.7201877453968015e-01 -3.5643519299259352e-03 0.0000000000000000e+00  2.5249192951164923e-01 -2.0863235825358413e-03 0.0000000000000000e+00  5.4468600081107799e-01 1.3123472364600939e-04 0.0000000000000000e+00  2.5065417217560604e-01 -1.0340692813120859e-04 0.0000000000000000e+00  5.8911779783934921e-02 -2.1279752509894376e-02 0.0000000000000000e+00  1.0421867287805234e-01 -1.2847706272333108e-03 0.0000000000000000e+00  7.7174102573879211e-01 -1.1324226766782997e-03 0.0000000000000000e+00  5.4742437573337255e-01 -1.0677496372487728e-03 0.0000000000000000e+00  5.4297856829299984e-01 -1.9399569580377155e-02 0.0000000000000000e+00  5.4090730216394989e-01 -9.7523547353956571e-03 0.0000000000000000e+00  2.5776978958545554e-01 -1.9516748449851531e-02 0.0000000000000000e+00  3.1814418626590635e-01 -9.8730485656847392e-03 0.0000000000000000e+00  8.3077679968507223e-01 -3.9752139872177052e-03 0.0000000000000000e+00  5.8379120194207523e-01 -2.7926101452174436e-03 0.0000000000000000e+00  7.8310222347023312e-02 -1.5358500539373800e-03 0.0000000000000000e+00  5.7478067381643551e-02 -8.8451686975803325e-03 0.0000000000000000e+00  2.1668604641086486e-01 -2.8674988987677200e-03 0.0000000000000000e+00  8.3930874277459122e-01 3.9763616055407493e-06 0.0000000000000000e+00  8.3091634292567407e-01 -1.0397726765566798e-03 0.0000000000000000e+00  8.6142853449369727e-01 4.7773451741743911e-05 0.0000000000000000e+00  6.5942042229002729e-01 -1.5129731252019852e-04 0.0000000000000000e+00  6.2144525642222181e-01 -1.7406143336580228e-02 0.0000000000000000e+00  4.9867667223173318e-01 -1.8846801783430712e-02 0.0000000000000000e+00  1.5293396352022881e-01 2.0590718169446249e-05 0.0000000000000000e+00  </DataArray> 
</PointData> 
</Piece>
</UnstructuredGrid>
</VTKFile>