<?xml version="1.0"?>
<VTKFile type="UnstructuredGrid"  version="0.1"  >
<UnstructuredGrid>
<Piece  NumberOfPoints="74" NumberOfCells="116">
<Points>
<DataArray  type="Float64"  NumberOfComponents="3"  format="ascii">0 0.1 0  1 0.5 0  1 0 0  0.5 0 0  0.5 0.1 0  0 0.5 0  0.3999999999999999 0.1 0  0.3000000000006934 0.1 0  0.2000000000008322 0.1 0  0.1000000000004161 0.1 0  0 0.1999999999997547 0  0 0.2999999999994712 0  0 0.3999999999997302 0  1 0.09999999999977893 0  1 0.1999999999994874 0  1 0.2999999999994734 0  1 0.3999999999997367 0  0.8999999999995836 0.5 0  0.7999999999999998 0.5 0  0.7000000000006934 0.5 0  0.6000000000013869 0.5 0  0.5000000000020587 0.5 0  0.4000000000016644 0.5 0  0.3000000000012483 0.5 0  0.2000000000008322 0.5 0  0.100000000000416 0.5 0  0.5999999999999998 0 0  0.6999999999999998 0 0  0.7999999999999998 0 0  0.8999999999999999 0 0  0.7500000000003465 0.2500000000004778 0  0.3543391325463663 0.2991924483250604 0  0.553378378378697 0.3020270270273037 0  0.1787891732531009 0.2659903004385146 0  0.6466255338365724 0.1445573283846343 0  0.8562500000000254 0.1437500000000713 0  0.856098325074891 0.361486283316847 0  0.6816736830075278 0.3648211388640052 0  0.448159880464739 0.2121637169551877 0  0.4442982423584978 0.391753795319108 0  0.2715790559184047 0.3791523269473472 0  0.1150718967116154 0.3810596070614992 0  0.273896361605391 0.2226672926296658 0  0.7555224852078926 0.1020686894856464 0  0.8979035535853922 0.2559272925043116 0  0.6445849552000902 0.2491650448004766 0  0.5478043236843367 0.4007980506679818 0  0.352903507247834 0.4123446403902193 0  0.5496252119258873 0.198892274868335 0  0.1025000000000628 0.2025000000000793 0  0.7612026559354884 0.4139216440830358 0  0.3577922882813261 0.1869645025636818 0  0.08583994585393254 0.2985459840157004 0  0.1890807548202245 0.1872353521459373 0  0.5835416666668073 0.0835416666668073 0  0.9164583333332904 0.08354166666667312 0  0.9164583333334675 0.4164583333334926 0  0.2547419831776344 0.2996478550002504 0  0.4710860689343058 0.3007911402439354 0  0.781407901234509 0.3188456882028318 0  0.7208816921369663 0.1846110001839818 0  0.8128018695329834 0.2144926517372858 0  0.649632136184474 0.433223864690338 0  0.9327539062502878 0.3399544270834451 0  0.8440199532439595 0.06626464909321926 0  0.658985938888213 0.06680419985703676 0  0.9341223773837415 0.1566437918340645 0  0.1841698230674055 0.4236601210592508 0  0.8467518628686861 0.4383732521466751 0  0.06619318181815657 0.4338068181818928 0  0.1830453437295036 0.3453722748296045 0  0.6216450770400792 0.3451346442005304 0  0.6969143846794638 0.2973176370269194 0  0.05244047619066258 0.152440476190348 0  </DataArray>
</Points>
<Cells>
<DataArray  type="UInt32"  Name="connectivity"  format="ascii">7 8 53  23 24 67  7 42 53  4 6 38  23 40 67  21 22 39  12 41 52  44 59 61  36 44 59  35 43 61  43 60 61  11 12 52  4 38 48  31 39 47  31 40 47  21 39 46  39 46 58  32 46 58  22 39 47  31 38 51  23 40 47  31 38 58  31 39 58  10 49 52  32 48 58  38 48 58  10 11 52  6 38 51  31 40 57  19 50 62  14 15 44  27 28 43  12 41 69  9 49 53  31 42 51  8 9 53  7 42 51  18 19 50  4 48 54  37 50 62  25 67 69  32 45 48  41 67 69  34 48 54  34 45 48  2 13 55  2 29 55  3 26 54  3 4 54  1 17 56  1 16 56  20 21 46  22 23 47  45 71 72  31 42 57  33 42 53  6 7 51  37 50 59  32 45 71  33 42 57  24 25 67  14 44 66  35 44 66  36 44 63  35 43 64  15 44 63  27 43 65  34 43 65  28 43 64  30 59 61  35 44 61  34 43 60  30 60 61  37 59 72  30 45 60  34 45 60  20 46 62  37 71 72  33 49 52  33 49 53  33 52 70  41 52 70  46 62 71  30 45 72  5 25 69  5 12 69  13 14 66  26 27 65  28 29 64  15 16 63  32 46 71  17 18 68  36 50 59  10 49 73  9 49 73  36 50 68  18 50 68  19 20 62  0 9 73  0 10 73  37 62 71  13 55 66  26 54 65  29 55 64  16 56 63  17 56 68  33 57 70  40 57 70  30 59 72  36 56 68  35 55 64  34 54 65  36 56 63  35 55 66  40 67 70  41 67 70  </DataArray>
<DataArray  type="UInt32"  Name="offsets"  format="ascii">3 6 9 12 15 18 21 24 27 30 33 36 39 42 45 48 51 54 57 60 63 66 69 72 75 78 81 84 87 90 93 96 99 102 105 108 111 114 117 120 123 126 129 132 135 138 141 144 147 150 153 156 159 162 165 168 171 174 177 180 183 186 189 192 195 198 201 204 207 210 213 216 219 222 225 228 231 234 237 240 243 246 249 252 255 258 261 264 267 270 273 276 279 282 285 288 291 294 297 300 303 306 309 312 315 318 321 324 327 330 333 336 339 342 345 348 </DataArray>
<DataArray  type="UInt8"  Name="types"  format="ascii">5 5 5 5 5 5 5 5 5 5 5 5 5 5 5 5 5 5 5 5 5 5 5 5 5 5 5 5 5 5 5 5 5 5 5 5 5 5 5 5 5 5 5 5 5 5 5 5 5 5 5 5 5 5 5 5 5 5 5 5 5 5 5 5 5 5 5 5 5 5 5 5 5 5 5 5 5 5 5 5 5 5 5 5 5 5 5 5 5 5 5 5 5 5 5 5 5 5 5 5 5 5 5 5 5 5 5 5 5 5 5 5 5 5 5 5 </DataArray>
</Cells>
<PointData  Scalars="f_35"> 
<DataArray  type="Float64"  Name="f_35"  format="ascii">-2.1309145752181563e-01  0.0000000000000000e+00  -2.1376705442612756e-01  -2.1377812082108136e-01  -2.1249193228422364e-01  0.0000000000000000e+00  -2.1339502179066425e-01  -2.1415553378764740e-01  -2.1095903982627726e-01  -2.1331116118576959e-01  -1.9896880907323156e-01  -1.5531959586643809e-01  -9.0163595515011380e-02  -2.0717967740514515e-01  -1.8629721316678727e-01  -1.4733906343753278e-01  -8.6233080311466995e-02  0.0000000000000000e+00  0.0000000000000000e+00  0.0000000000000000e+00  0.0000000000000000e+00  0.0000000000000000e+00  0.0000000000000000e+00  0.0000000000000000e+00  0.0000000000000000e+00  0.0000000000000000e+00  -2.1315008689339923e-01  -2.1334629554599416e-01  -2.1317910388020586e-01  -2.1292898220432294e-01  -1.6969832783844094e-01  -1.5794254661726015e-01  -1.5121692524682726e-01  -1.7341116451794189e-01  -2.0249861611345069e-01  -2.0022092576589154e-01  -1.1306847896431821e-01  -1.1113415368932424e-01  -1.9404980153216855e-01  -9.5724745401788380e-02  -1.0565609161320817e-01  -1.0348385980941067e-01  -1.9141903711357075e-01  -2.0800073005336633e-01  -1.6772214005724428e-01  -1.7335701675736129e-01  -8.8056483118618939e-02  -7.9100014778244021e-02  -1.9465012777192300e-01  -1.9732863556683633e-01  -7.6613651990883325e-02  -2.0125987774118131e-01  -1.5788819873400867e-01  -2.0134132776776295e-01  -2.1190322512181686e-01  -2.0897069809250146e-01  -7.4049527251235148e-02  -1.5626502695678438e-01  -1.5482529436424214e-01  -1.3849474276101303e-01  -1.9164425268674634e-01  -1.8276725797227847e-01  -6.0499112962816334e-02  -1.2531884635588056e-01  -2.1043110559927897e-01  -2.1127808046188445e-01  -1.9705655383895490e-01  -7.0376434256421774e-02  -5.6160502750231434e-02  -6.1253077252086084e-02  -1.2887020520850770e-01  -1.2523364784561700e-01  -1.4982227017818056e-01  -2.0784074782356179e-01  </DataArray> 
</PointData> 
</Piece>
</UnstructuredGrid>
</VTKFile>