<?xml version="1.0"?>
<VTKFile type="UnstructuredGrid"  version="0.1"  >
<UnstructuredGrid>
<Piece  NumberOfPoints="12123" NumberOfCells="23692">
<Points>
<DataArray  type="Float64"  NumberOfComponents="3"  format="ascii">0 0 0  0 0.41 0  2.2 0 0  2.2 0.41 0  0.2 0.15 0  0.2 0.25 0  0 0.4000000000000008 0  0 0.3900000000000259 0  0 0.3800000000000606 0  0 0.3700000000000953 0  0 0.3600000000001082 0  0 0.3500000000001241 0  0 0.3400000000001558 0  0 0.3300000000001905 0  0 0.3200000000002133 0  0 0.3100000000002381 0  0 0.3000000000002728 0  0 0.2900000000003075 0  0 0.2800000000003204 0  0 0.2700000000003551 0  0 0.2600000000003897 0  0 0.2500000000004243 0  0 0.2400000000004419 0  0 0.2300000000004503 0  0 0.2200000000004849 0  0 0.2100000000005195 0  0 0.2000000000005203 0  0 0.1900000000004874 0  0 0.1800000000004544 0  0 0.1700000000004476 0  0 0.1600000000004316 0  0 0.1500000000003986 0  0 0.1400000000003795 0  0 0.1300000000003759 0  0 0.1200000000003428 0  0 0.1100000000003098 0  0 0.1000000000002768 0  0 0.09000000000024383 0  0 0.08000000000021068 0  0 0.07000000000020096 0  0 0.0600000000001879 0  0 0.05000000000015475 0  0 0.04000000000012166 0  0 0.03000000000008857 0  0 0.02000000000005536 0  0 0.01000000000002221 0  0.009999999999981288 0 0  0.01999999999996251 0 0  0.02999999999994353 0 0  0.0399999999999241 0 0  0.04999999999990434 0 0  0.05999999999988457 0 0  0.06999999999986481 0 0  0.07999999999984503 0 0  0.08999999999982462 0 0  0.09999999999980327 0 0  0.1099999999997819 0 0  0.1199999999997606 0 0  0.1299999999997423 0 0  0.1399999999997245 0 0  0.1499999999997079 0 0  0.1599999999996929 0 0  0.1699999999996795 0 0  0.179999999999666 0 0  0.1899999999996523 0 0  0.1999999999996356 0 0  0.209999999999619 0 0  0.2199999999996025 0 0  0.2299999999995879 0 0  0.2399999999995744 0 0  0.249999999999561 0 0  0.2599999999995468 0 0  0.2699999999995302 0 0  0.2799999999995105 0 0  0.2899999999994876 0 0  0.2999999999994596 0 0  0.3099999999994304 0 0  0.3199999999994012 0 0  0.3299999999993699 0 0  0.3399999999993343 0 0  0.3499999999992988 0 0  0.3599999999992632 0 0  0.3699999999992334 0 0  0.3799999999992042 0 0  0.3899999999991749 0 0  0.3999999999991457 0 0  0.4099999999991165 0 0  0.4199999999990872 0 0  0.429999999999058 0 0  0.4399999999990288 0 0  0.4499999999989995 0 0  0.4599999999989703 0 0  0.4699999999989373 0 0  0.4799999999989018 0 0  0.4899999999988663 0 0  0.4999999999988318 0 0  0.5099999999988025 0 0  0.5199999999987733 0 0  0.529999999998744 0 0  0.5399999999987057 0 0  0.5499999999986639 0 0  0.559999999998622 0 0  0.5699999999985838 0 0  0.5799999999985546 0 0  0.5899999999985253 0 0  0.5999999999984962 0 0  0.6099999999984668 0 0  0.6199999999984376 0 0  0.6299999999984084 0 0  0.6399999999983792 0 0  0.6499999999983499 0 0  0.6599999999983207 0 0  0.6699999999982915 0 0  0.6799999999982622 0 0  0.6899999999982329 0 0  0.6999999999982038 0 0  0.7099999999981744 0 0  0.7199999999981452 0 0  0.7299999999981162 0 0  0.7399999999980867 0 0  0.7499999999980577 0 0  0.7599999999980284 0 0  0.769999999997999 0 0  0.7799999999979699 0 0  0.7899999999979407 0 0  0.7999999999979114 0 0  0.8099999999978793 0 0  0.8199999999978375 0 0  0.8299999999977956 0 0  0.8399999999977538 0 0  0.8499999999977218 0 0  0.8599999999976925 0 0  0.8699999999976633 0 0  0.8799999999976341 0 0  0.8899999999976047 0 0  0.8999999999975756 0 0  0.9099999999975463 0 0  0.9199999999975172 0 0  0.9299999999974878 0 0  0.9399999999974586 0 0  0.9499999999974295 0 0  0.9599999999974002 0 0  0.969999999997371 0 0  0.9799999999973418 0 0  0.9899999999973124 0 0  0.9999999999972872 0 0  1.009999999997271 0 0  1.019999999997246 0 0  1.029999999997217 0 0  1.039999999997188 0 0  1.049999999997163 0 0  1.059999999997159 0 0  1.069999999997144 0 0  1.079999999997114 0 0  1.089999999997085 0 0  1.099999999997056 0 0  1.109999999997077 0 0  1.119999999997098 0 0  1.12999999999712 0 0  1.139999999997141 0 0  1.149999999997162 0 0  1.159999999997205 0 0  1.169999999997248 0 0  1.179999999997269 0 0  1.18999999999729 0 0  1.199999999997312 0 0  1.209999999997333 0 0  1.219999999997354 0 0  1.229999999997375 0 0  1.239999999997403 0 0  1.249999999997449 0 0  1.259999999997482 0 0  1.269999999997503 0 0  1.279999999997525 0 0  1.289999999997546 0 0  1.299999999997567 0 0  1.309999999997589 0 0  1.31999999999761 0 0  1.329999999997648 0 0  1.339999999997694 0 0  1.349999999997717 0 0  1.359999999997738 0 0  1.369999999997759 0 0  1.379999999997781 0 0  1.389999999997802 0 0  1.399999999997823 0 0  1.409999999997846 0 0  1.419999999997893 0 0  1.42999999999793 0 0  1.439999999997952 0 0  1.449999999997973 0 0  1.459999999997994 0 0  1.469999999998015 0 0  1.479999999998037 0 0  1.489999999998058 0 0  1.499999999998091 0 0  1.509999999998137 0 0  1.519999999998165 0 0  1.529999999998186 0 0  1.539999999998207 0 0  1.549999999998229 0 0  1.55999999999825 0 0  1.569999999998271 0 0  1.579999999998293 0 0  1.589999999998336 0 0  1.599999999998378 0 0  1.6099999999984 0 0  1.619999999998421 0 0  1.629999999998442 0 0  1.639999999998464 0 0  1.649999999998485 0 0  1.659999999998506 0 0  1.669999999998528 0 0  1.679999999998549 0 0  1.68999999999857 0 0  1.699999999998592 0 0  1.709999999998634 0 0  1.719999999998677 0 0  1.729999999998699 0 0  1.73999999999872 0 0  1.749999999998741 0 0  1.759999999998762 0 0  1.769999999998784 0 0  1.779999999998805 0 0  1.789999999998833 0 0  1.799999999998879 0 0  1.809999999998912 0 0  1.819999999998933 0 0  1.829999999998954 0 0  1.839999999998976 0 0  1.849999999998997 0 0  1.859999999999018 0 0  1.86999999999904 0 0  1.879999999999078 0 0  1.889999999999124 0 0  1.899999999999147 0 0  1.909999999999168 0 0  1.919999999999189 0 0  1.929999999999211 0 0  1.939999999999232 0 0  1.949999999999253 0 0  1.959999999999276 0 0  1.969999999999323 0 0  1.97999999999936 0 0  1.989999999999381 0 0  1.999999999999387 0 0  2.009999999999383 0 0  2.019999999999379 0 0  2.029999999999375 0 0  2.039999999999371 0 0  2.049999999999391 0 0  2.059999999999437 0 0  2.069999999999521 0 0  2.079999999999617 0 0  2.089999999999663 0 0  2.099999999999694 0 0  2.109999999999689 0 0  2.119999999999686 0 0  2.129999999999681 0 0  2.139999999999722 0 0  2.149999999999776 0 0  2.159999999999873 0 0  2.169999999999948 0 0  2.179999999999994 0 0  2.190000000000004 0 0  2.2 0.009999999999981952 0  2.2 0.01999999999996097 0  2.2 0.02999999999994221 0  2.2 0.03999999999992531 0  2.2 0.04999999999991126 0  2.2 0.05999999999988534 0  2.2 0.06999999999985251 0  2.2 0.07999999999982024 0  2.2 0.08999999999980195 0  2.2 0.0999999999997695 0  2.2 0.1099999999997346 0  2.2 0.1199999999997104 0  2.2 0.1299999999996865 0  2.2 0.1399999999996516 0  2.2 0.1499999999996167 0  2.2 0.1599999999995818 0  2.2 0.169999999999564 0  2.2 0.1799999999995553 0  2.2 0.1899999999995205 0  2.2 0.1999999999994856 0  2.2 0.2099999999994845 0  2.2 0.2199999999995173 0  2.2 0.2299999999995501 0  2.2 0.2399999999995566 0  2.2 0.2499999999995723 0  2.2 0.259999999999605 0  2.2 0.2699999999996239 0  2.2 0.2799999999996273 0  2.2 0.2899999999996601 0  2.2 0.2999999999996928 0  2.2 0.3099999999997256 0  2.2 0.3199999999997584 0  2.2 0.3299999999997912 0  2.2 0.3399999999998008 0  2.2 0.3499999999998136 0  2.2 0.3599999999998464 0  2.2 0.3699999999998793 0  2.2 0.3799999999999122 0  2.2 0.3899999999999451 0  2.2 0.3999999999999779 0  2.190000000000005 0.41 0  2.180000000000009 0.41 0  2.170000000000015 0.41 0  2.160000000000019 0.41 0  2.150000000000024 0.41 0  2.140000000000029 0.41 0  2.130000000000033 0.41 0  2.120000000000038 0.41 0  2.110000000000043 0.41 0  2.100000000000048 0.41 0  2.090000000000087 0.41 0  2.080000000000142 0.41 0  2.070000000000197 0.41 0  2.06000000000024 0.41 0  2.050000000000245 0.41 0  2.040000000000249 0.41 0  2.030000000000254 0.41 0  2.020000000000259 0.41 0  2.010000000000264 0.41 0  2.000000000000268 0.41 0  1.990000000000273 0.41 0  1.980000000000278 0.41 0  1.970000000000283 0.41 0  1.960000000000287 0.41 0  1.950000000000292 0.41 0  1.940000000000302 0.41 0  1.930000000000332 0.41 0  1.920000000000362 0.41 0  1.910000000000392 0.41 0  1.900000000000422 0.41 0  1.890000000000452 0.41 0  1.880000000000482 0.41 0  1.870000000000503 0.41 0  1.860000000000508 0.41 0  1.850000000000529 0.41 0  1.840000000000559 0.41 0  1.830000000000588 0.41 0  1.820000000000618 0.41 0  1.810000000000648 0.41 0  1.800000000000678 0.41 0  1.790000000000708 0.41 0  1.780000000000719 0.41 0  1.770000000000725 0.41 0  1.760000000000755 0.41 0  1.750000000000785 0.41 0  1.740000000000815 0.41 0  1.730000000000845 0.41 0  1.720000000000875 0.41 0  1.710000000000905 0.41 0  1.700000000000931 0.41 0  1.690000000000936 0.41 0  1.680000000000951 0.41 0  1.670000000000981 0.41 0  1.660000000001048 0.41 0  1.650000000001128 0.41 0  1.640000000001208 0.41 0  1.630000000001275 0.41 0  1.620000000001305 0.41 0  1.610000000001321 0.41 0  1.600000000001325 0.41 0  1.590000000001351 0.41 0  1.580000000001384 0.41 0  1.57000000000144 0.41 0  1.560000000001495 0.41 0  1.55000000000155 0.41 0  1.540000000001588 0.41 0  1.530000000001618 0.41 0  1.520000000001623 0.41 0  1.510000000001634 0.41 0  1.500000000001664 0.41 0  1.490000000001708 0.41 0  1.480000000001763 0.41 0  1.470000000001818 0.41 0  1.460000000001871 0.41 0  1.450000000001901 0.41 0  1.440000000001922 0.41 0  1.430000000001926 0.41 0  1.420000000001947 0.41 0  1.410000000001977 0.41 0  1.400000000002031 0.41 0  1.390000000002086 0.41 0  1.380000000002141 0.41 0  1.370000000002184 0.41 0  1.360000000002214 0.41 0  1.350000000002224 0.41 0  1.340000000002231 0.41 0  1.33000000000226 0.41 0  1.320000000002299 0.41 0  1.310000000002354 0.41 0  1.300000000002394 0.41 0  1.290000000002424 0.41 0  1.280000000002431 0.41 0  1.270000000002435 0.41 0  1.26000000000244 0.41 0  1.250000000002457 0.41 0  1.240000000002487 0.41 0  1.230000000002536 0.41 0  1.22000000000259 0.41 0  1.21000000000262 0.41 0  1.200
[...]
<PointData  Scalars="f_25-1"> 
<DataArray  type="Float64"  Name="f_25-1"  format="ascii">0.0000000000000000e+00  0.0000000000000000e+00  -5.3141241197527627e+01  -5.3141241204380812e+01  -1.3626846149906106e+01  -1.3647379780365361e+01  0.0000000000000000e+00  0.0000000000000000e+00  0.0000000000000000e+00  0.0000000000000000e+00  0.0000000000000000e+00  0.0000000000000000e+00  0.0000000000000000e+00  0.0000000000000000e+00  0.0000000000000000e+00  0.0000000000000000e+00  0.0000000000000000e+00  0.0000000000000000e+00  0.0000000000000000e+00  0.0000000000000000e+00  0.0000000000000000e+00  0.0000000000000000e+00  0.0000000000000000e+00  0.0000000000000000e+00  0.0000000000000000e+00  0.0000000000000000e+00  0.0000000000000000e+00  0.0000000000000000e+00  0.0000000000000000e+00  0.0000000000000000e+00  0.0000000000000000e+00  0.0000000000000000e+00  0.0000000000000000e+00  0.0000000000000000e+00  0.0000000000000000e+00  0.0000000000000000e+00  0.0000000000000000e+00  0.0000000000000000e+00  0.0000000000000000e+00  0.0000000000000000e+00  0.0000000000000000e+00  0.0000000000000000e+00  0.0000000000000000e+00  0.0000000000000000e+00  0.0000000000000000e+00  0.0000000000000000e+00  6.6477075617627612e-01  3.6301226947063231e-01  1.0413198972418190e-01  -2.0430483282276909e-01  -5.4235348598100164e-01  -9.1102798369782700e-01  -1.3227294609306721e+00  -1.7768753048703088e+00  -2.2994673063399720e+00  -2.8846203014380052e+00  -3.5660968874223498e+00  -4.3221400900378812e+00  -5.1922708829396171e+00  -6.1572033542034870e+00  -7.2248802076764109e+00  -8.3898733057387869e+00  -9.6373748330143574e+00  -1.0958932027982938e+01  -1.2321645860629905e+01  -1.3717605677354383e+01  -1.5111661943803908e+01  -1.6475621805305256e+01  -1.7799977210697772e+01  -1.9046496483258391e+01  -2.0202238255066014e+01  -2.1271875264662011e+01  -2.2225350849812664e+01  -2.3093160256035922e+01  -2.3837155639006721e+01  -2.4485120464025780e+01  -2.5045503997851341e+01  -2.5528644494585095e+01  -2.5938739712139228e+01  -2.6294743922380661e+01  -2.6590088011537183e+01  -2.6849225791608038e+01  -2.7076551570155292e+01  -2.7270804708804107e+01  -2.7451321062334817e+01  -2.7610469844467168e+01  -2.7759405580047812e+01  -2.7901705059528847e+01  -2.8036294865033522e+01  -2.8168336426044281e+01  -2.8296758101703759e+01  -2.8424636693361137e+01  -2.8552206877203634e+01  -2.8680086644113331e+01  -2.8808889940902546e+01  -2.8938741886272723e+01  -2.9070092762581222e+01  -2.9202424235276414e+01  -2.9335907336763640e+01  -2.9470794770920687e+01  -2.9606824651363194e+01  -2.9743606158054853e+01  -2.9881490920320310e+01  -3.0020223713029051e+01  -3.0159674523175298e+01  -3.0299739022676327e+01  -3.0440421948497111e+01  -3.0581539397476561e+01  -3.0723069629890468e+01  -3.0864949936346704e+01  -3.1007100245154348e+01  -3.1149475032871010e+01  -3.1292035986520482e+01  -3.1434747168159898e+01  -3.1577559731999663e+01  -3.1720467300775091e+01  -3.1863445006443499e+01  -3.2006465040307297e+01  -3.2149516484532022e+01  -3.2292583276297549e+01  -3.2435661701682164e+01  -3.2578744250730516e+01  -3.2721817988674225e+01  -3.2864879658927137e+01  -3.3007928061309883e+01  -3.3150967425306220e+01  -3.3293983661566976e+01  -3.3436980416900710e+01  -3.3579965850490900e+01  -3.3722928311823118e+01  -3.3865876719571425e+01  -3.4008805394302343e+01  -3.4151719196990562e+01  -3.4294617850193212e+01  -3.4437502590406240e+01  -3.4580375156172536e+01  -3.4723233793404880e+01  -3.4866082921879283e+01  -3.5008921778463446e+01  -3.5151752310173087e+01  -3.5294573397747406e+01  -3.5437387380149723e+01  -3.5580195540922340e+01  -3.5722997595083186e+01  -3.5865794969636966e+01  -3.6008587563177883e+01  -3.6151376163903343e+01  -3.6294161481896097e+01  -3.6436944362486059e+01  -3.6579724257385195e+01  -3.6722502198176294e+01  -3.6865278215258073e+01  -3.7008052946300893e+01  -3.7150826107270454e+01  -3.7293598312523372e+01  -3.7436369880119855e+01  -3.7579140538008375e+01  -3.7721910663849656e+01  -3.7864680577786736e+01  -3.8007449919356894e+01  -3.8150219144477042e+01  -3.8292988300017427e+01  -3.8435757302605694e+01  -3.8578526346251749e+01  -3.8721295382342653e+01  -3.8864064453858930e+01  -3.9006833657546167e+01  -3.9149602956815720e+01  -3.9292372350953713e+01  -3.9435141887787623e+01  -3.9577911604097160e+01  -3.9720681407064461e+01  -3.9863451395329882e+01  -4.0006221524660283e+01  -4.0148991784397836e+01  -4.0291762182851336e+01  -4.0434532747471955e+01  -4.0577303426694506e+01  -4.0720074223833301e+01  -4.0862845135403127e+01  -4.1005616184498265e+01  -4.1148387304165723e+01  -4.1291158549846827e+01  -4.1433929873518707e+01  -4.1576701280983023e+01  -4.1719472776220876e+01  -4.1862244334580694e+01  -4.2005015955539164e+01  -4.2147787642126538e+01  -4.2290559382915880e+01  -4.2433331171550208e+01  -4.2576103011822262e+01  -4.2718874877668831e+01  -4.2861646797053773e+01  -4.3004418740956787e+01  -4.3147190716215590e+01  -4.3289962714564119e+01  -4.3432734738648826e+01  -4.3575506782274196e+01  -4.3718278845424997e+01  -4.3861050923144873e+01  -4.4003823016714129e+01  -4.4146595121518089e+01  -4.4289367235232667e+01  -4.4432139360261665e+01  -4.4574911492708466e+01  -4.4717683631270397e+01  -4.4860455776830271e+01  -4.5003227926491654e+01  -4.5146000080267328e+01  -4.5288772236957982e+01  -4.5431544397578527e+01  -4.5574316559806995e+01  -4.5717088724108208e+01  -4.5859860889744354e+01  -4.6002633055963962e+01  -4.6145405223476978e+01  -4.6288177391597657e+01  -4.6430949560094533e+01  -4.6573721728441164e+01  -4.6716493896755331e+01  -4.6859266065184855e+01  -4.7002038233377604e+01  -4.7144810401396555e+01  -4.7287582569008627e+01  -4.7430354736333520e+01  -4.7573126903128959e+01  -4.7715899069657723e+01  -4.7858671235812373e+01  -4.8001443401472265e+01  -4.8144215566667704e+01  -4.8286987731487159e+01  -4.8429759895925272e+01  -4.8572532059959926e+01  -4.8715304223634682e+01  -4.8858076386916736e+01  -4.9000848549912732e+01  -4.9143620712535203e+01  -4.9286392874873862e+01  -4.9429165036946117e+01  -4.9571937198724484e+01  -4.9714709360299551e+01  -4.9857481521615689e+01  -5.0000253682729124e+01  -5.0143025843643976e+01  -5.0285798004389129e+01  -5.0428570164962210e+01  -5.0571342325380570e+01  -5.0714114485657667e+01  -5.0856886645811230e+01  -5.0999658805835068e+01  -5.1142430965754144e+01  -5.1285203125567321e+01  -5.1427975285291801e+01  -5.1570747444921977e+01  -5.1713519604468260e+01  -5.1856291763939751e+01  -5.1999063923334013e+01  -5.2141836082671574e+01  -5.2284608241956526e+01  -5.2427380401188941e+01  -5.2570152560396053e+01  -5.2712924719593829e+01  -5.2855696878806405e+01  -5.2998469038106869e+01  -5.3141241197518163e+01  -5.3141241197395381e+01  -5.3141241197176264e+01  -5.3141241196947178e+01  -5.3141241196740701e+01  -5.3141241196575990e+01  -5.3141241196463362e+01  -5.3141241196419585e+01  -5.3141241196445151e+01  -5.3141241196545906e+01  -5.3141241196709977e+01  -5.3141241196949991e+01  -5.3141241197263128e+01  -5.3141241197621810e+01  -5.3141241198040753e+01  -5.3141241198509491e+01  -5.3141241199016250e+01  -5.3141241199545412e+01  -5.3141241200099905e+01  -5.3141241200670834e+01  -5.3141241201242160e+01  -5.3141241201811695e+01  -5.3141241202369407e+01  -5.3141241202906727e+01  -5.3141241203406182e+01  -5.3141241203873285e+01  -5.3141241204289798e+01  -5.3141241204652943e+01  -5.3141241204961517e+01  -5.3141241205197829e+01  -5.3141241205377248e+01  -5.3141241205472610e+01  -5.3141241205495568e+01  -5.3141241205446661e+01  -5.3141241205344834e+01  -5.3141241205177380e+01  -5.3141241204961830e+01  -5.3141241204741640e+01  -5.3141241204529379e+01  -5.3141241204397865e+01  -5.2998469044959272e+01  -5.2855696885396355e+01  -5.2712924725751144e+01  -5.2570152566085028e+01  -5.2427380406432185e+01  -5.2284608246813576e+01  -5.2141836087235447e+01  -5.1999063927714943e+01  -5.1856291768251197e+01  -5.1713519608872865e+01  -5.1570747449557139e+01  -5.1427975290334004e+01  -5.1285203131193782e+01  -5.1142430972153981e+01  -5.0999658813213721e+01  -5.0856886654386756e+01  -5.0714114495678672e+01  -5.0571342337097981e+01  -5.0428570178658738e+01  -5.0285798020375033e+01  -5.0143025862249701e+01  -5.0000253704322844e+01  -4.9857481546554972e+01  -4.9714709389053098e+01  -4.9571937231723631e+01  -4.9429165074659906e+01  -4.9286392917894368e+01  -4.9143620761345943e+01  -4.9000848605137094e+01  -4.8858076449258704e+01  -4.8715304293716585e+01  -4.8572532138484661e+01  -4.8429759983699789e+01  -4.8286987829254045e+01  -4.8144215675220075e+01  -4.8001443521548396e+01  -4.7858671368392912e+01  -4.7715899215589999e+01  -4.7573127063290549e+01  -4.7430354911311042e+01  -4.7287582759665213e+01  -4.7144810608535039e+01  -4.7002038457661484e+01  -4.6859266307029486e+01  -4.6716494156342023e+01  -4.6573722006120221e+01  -4.6430949855745084e+01  -4.6288177705502235e+01  -4.6145405554394628e+01  -4.6002633402660564e+01  -4.5859861250523458e+01  -4.5717089097435199e+01  -4.5574316942624435e+01  -4.5431544786493355e+01  -4.5288772627832614e+01  -4.5146000465205994e+01  -4.5003228300968331e+01  -4.4860456131865874e+01  -4.4717683957837409e+01  -4.4574911778925987e+01  -4.4432139592387863e+01  -4.4289367397075495e+01  -4.4146595193315513e+01  -4.4003822980690273e+01  -4.3861050754786021e+01  -4.3718278513664444e+01  -4.3575506257316505e+01  -4.3432733981800467e+01  -4.3289961687757803e+01  -4.3147189371220009e+01  -4.3004417024281601e+01  -4.2861644651674943e+01  -4.2718872246092310e+01  -4.2576099802100913e+01  -4.2433327320047766e+01  -4.2290554793702121e+01  -4.2147782213573805e+01  -4.2005009581410263e+01  -4.1862236888249654e+01  -4.1719464133310424e+01  -4.1576691299258833e+01  -4.1433918397945078e+01  -4.1291145403103599e+01  -4.1148372321381046e+01  -4.1005599139068423e+01  -4.0862825851297629e+01  -4.0720052456577093e+01  -4.0577278935019919e+01  -4.0434505278285862e+01  -4.0291731499910149e+01  -4.0148957611632234e+01  -4.0006183528808158e+01  -3.9863409308155163e+01  -3.9720634978428599e+01  -3.9577860438898647e+01  -3.9435085771542141e+01  -3.9292310943012296e+01  -3.9149536026172861e+01  -3.9006760861769074e+01  -3.8863985625022451e+01  -3.8721210285844279e+01  -3.8578434882135880e+01  -3.8435659383703580e+01  -3.8292883881782942e+01  -3.8150108441389811e+01  -3.8007332946584668e+01  -3.7864557568646084e+01  -3.7721782581393185e+01  -3.7579007863424884e+01  -3.7436233603304316e+01  -3.7293459764793432e+01  -3.7150686637227260e+01  -3.7007914460427330e+01  -3.6865143386154863e+01  -3.6722373221283242e+01  -3.6579604947830731e+01  -3.6436838658413194e+01  -3.6294073975666151e+01  -3.6151312084526346e+01  -3.6008553389549903e+01  -3.5865797775628607e+01  -3.5723046879103194e+01  -3.5580299990405649e+01  -3.5437557667943189e+01  -3.5294824245272281e+01  -3.5152095268589434e+01  -3.5009375185198948e+01  -3.4866665373579131e+01  -3.4723964008121911e+01  -3.4581275733025052e+01  -3.4438601082079501e+01  -3.4295940591082925e+01  -3.4153297702840902e+01  -3.4010676191278925e+01  -3.3868070733662236e+01  -3.3725501600364794e+01  -3.3582952932265528e+01  -3.3440439912138174e+01  -3.3297961100858970e+01  -3.3155525939669189e+01  -3.3013136619759358e+01  -3.2870798358400272e+01  -3.2728530354792781e+01  -3.2586316203589703e+01  -3.2444197114982934e+01  -3.2302161239543111e+01  -3.2160211818345019e+01  -3.2018405753439623e+01  -3.1876707700287177e+01  -3.1735166847812131e+01  -3.1593788922927502e+01  -3.1452632335181480e+01  -3.1311656375320798e+01  -3.1170951815799882e+01  -3.1030530023413746e+01  -3.0890427047010665e+01  -3.0750665609428523e+01  -3.0611310290518709e+01  -3.0472482851650163e+01  -3.0334033895212503e+01  -3.0196131760401428e+01  -3.0058860984638134e+01  -2.9922358058447962e+01  -2.9786389337408067e+01  -2.9651204651942933e+01  -2.9516948818061643e+01  -2.9382978857614344e+01  -2.9250055908964338e+01  -2.9117667049862504e+01  -2.8986212678380081e+01  -2.8854697132890056e+01  -2.8722790709579122e+01  -2.8590827512817008e+01  -2.8457351595530543e+01  -2.8322767868351839e+01  -2.8184630543880871e+01  -2.8042504378324018e+01  -2.7892977107673332e+01  -2.7735980613477842e+01  -2.7569081302062326e+01  -2.7383501615470180e+01  -2.7183748639044804e+01  -2.6955973339113385e+01  -2.6704224947428354e+01  -2.6412715595831898e+01  -2.6076988062610130e+01  -2.5693299746976383e+01  -2.5246895268766405e+01  -2.4735787743383412e+01  -2.4145301671706520e+01  -2.3476398724706772e+01  -2.2713067726299354e+01  -2.1858140874071324e+01  -2.0911972194309726e+01  -1.9864971008251800e+01  -1.8744377468989658e+01  -1.7537496697657570e+01  -1.6286524274373999e+01  -1.4981024768343701e+01  -1.3659999785345899e+01  -1.2335636918556391e+01  -1.1038092677608487e+01  -9.7807129553405279e+00  -8.5718130001571708e+00  -7.4575795721373437e+00  -6.4089311769436170e+00  -5.4472132705110718e+00  -4.5864062285328728e+00  -3.8102595504161569e+00  -3.1140255917855706e+00  -2.4917171012556611e+00  -1.9372137859783172e+00  -1.4361243701997208e+00  -9.9365282760050100e-01  -5.7924752021541459e-01  -2.0469946521929780e-01  1.3872549638660128e-01  4.2260221285825755e-01  7.4578894769327564e-01  -8.9022090546340777e+00  -4.8252499375238775e+00  -7.6659503712612520e-01  2.3564766741896594e+00  4.8266991690829490e+00  6.6272719133823870e+00  7.5466514742071515e+00  7.8285749918340297e+00  7.3773387398116110e+00  6.3762795191105779e+00  4.5063198212435207e+00  1.9735909979188822e+00  -1.0729531248972177e+00  -4.9275661329753460e+00  -9.2022987181410674e+00  -1.8154421181575366e+01  -2.2306768052860917e+01  -2.6170046218527762e+01  -2.9567932132672148e+01  -3.2082663443196978e+01  -3.4023798194984998e+01  -3.5165683096822782e+01  -3.5784055762659307e+01  -3.5245389111431855e+01  -3.4112568506225976e+01  -3.2298888458980748e+01  -2.9598441285137426e+01  -2.6388799827611567e+01  -2.2454329610931385e+01  -1.8117294618143262e+01  -2.8233551733239882e+01  -4.5360158512080595e+01  -4.1505310208074768e+01  -3.3367182005754294e+01  -4.9068964881925069e+01  -3.8483099649170406e+01  -3.5948711458817776e+01  -3.0785316221602081e+01  -5.1016280994474350e+01  -4.3440338956830139e+01  -4.7232602966708349e+01  -4.6969250446449799e+01  -4.3779266908949317e+01  -5.0649278087222733e+01  -4.0006195915905003e+01  -3.9996924319312498e+01  -2.6341461900316897e+01  -2.9664632368316944e+01  -3.1918317569964231e+01  -3.4833213810248949e+01  -3.7067116038422895e+01  -2.6623479979845069e+01  -3.7349958503548663e+01  -3.4511266973933843e+01  -2.9383869482417197e+01  -3.2216697922826988e+01  -4.2262027542744406e+01  -4.8456070147435369e+01  -4.4836359659318902e+01  -4.2043662165416237e+01  -4.8617861268111440e+01  -4.5557953200368786e+01  -2.8108426147853312e+01  -3.8592383835333209e+01  -3.3384063640469279e+01  -3.4586715513361188e+00  -4.9841855665738720e+01  -3.0777139482263918e+00  -3.8707843161850668e+01  -5.1783050159161121e+01  -2.8002824293988510e+01  -4.6126753936469846e+01  -5.1831265856239199e+01  -3.5725999023589495e+01  -3.0615524083885870e+01  -2.1751452233529911e+01  -2.2639061963983995e+01  -3.5909939734669628e+01  -3.0804776798563971e+01  -4.2739267133387749e+01  -5.1923832461266294e+01  -3.3365865439618517e+01  -4.1069898892423296e+01  -4.7862881907630815e+01  -2.7487465765086299e+01  -2.9650796023766713e+01  -3.1956341444132946e+01  -3.7108989282436831e+01  -3.4557456433582672e+01  -4.9736060842168918e+01  -1.0990926900772404e+01  -4.0931453066035495e+01  -5.0218373126982200e+01  -4.0367087378896883e+01  -4.4194081782148125e+01  -4.6489996398335357e+01  -4.4985756955497336e-01  -1.0135557044099755e+01  -4.4552199847204008e+01  -4.3805402770947964e+01  -4.7634569280039649e+01  -5.0852447110240725e+01  -4.3155894534321305e+01  -4.7540311002852349e+01  -5.2856140088281089e-01  -5.2092394787124420e+01  -3.0601756065634000e+01  -3.5749413271877167e+01  -4.6453716943582272e+01  -3.7663682055578576e+01  -4.4766819176821798e+01  -3.9474643506861710e+01  -2.9100762475757065e+01  -3.2490802605088653e+01  -3.4229944998878196e+01  -2.6893946408672498e+01  -3.6682206679959393e+01  -3.1533609475738608e+01  -4.2854506367769098e+01  -4.9636532504828686e+01  -4.0939383335516233e+01  -3.9440839861439407e+01  -3.9602658484603033e+01  -5.0947706817722377e+01  -3.7936964674073636e+01  -4.0931507461538786e+01  -2.7420900732823103e+01  -3.9117675662633161e+01  -2.6803820890443035e+01  -2.8760312710428202e+01  -3.2773243907605135e+01  -3.3946609997132086e+01  -2.7670762607693643e+01  -3.7894157446710523e+01  -2.5908762616677613e+01  -4.5924083324261076e+01  -2.4801543347519715e+01  -2.8874743960868489e+01  -2.6534904128302269e+01  -3.3687044840368245e+01  -3.6783873697217608e+01  -3.6473674985823109e+01  -3.1320985105581737e+01  -4.9219625853872664e+01  -4.2556094889888648e+01  -3.4948827088320741e+01  -2.9817699720753929e+01  -3.8167042256168621e+01  -4.9085392046589732e+01  -4.8091657778642563e+01  -2.8540394723698032e+01  -3.0007883369142643e+01  -3.1606026453793518e+01  -3.5117555469861422e+01  -3.2534295757182988e+01  -4.5929101191396185e+01  -4.5371081374560283e+01  -3.5159532757156775e+01  -3.2684651398057113e+01  -3.0153029736712195e+01  -1.6999961634327850e+01  -4.6806658950993771e+01  -4.1824051908943808e+01  -3.4107073149431585e+01  -1.7893853420988410e+00  -2.4902717705706845e+01  -5.2303718810121303e+01  -4.4795790476205497e+01  -5.1017813156637182e+01  -1.6103075676347667e+00  -4.2957710205300415e+01  -5.0211089069356227e+01  -4.0377184409011178e+01  -3.6531370095290477e+01  -3.1386620136199866e+01  -1.6979853199032473e+01  -4.1658826410430045e+01  -4.9016231066616484e+01  -4.7805591129874351e+01  -4.2048221636702628e+01  -4.0244509612962041e+01  -6.3272835582475961e+00  -4.4555000503571527e+01  -4.3512536036263036e+01  -4.8282782638099228e+01  -4.5240627922409949e+01  -4.8491185027503271e+01  -3.9209725133043733e+01  -1.7175722288343572e+01  -5.2374626369150505e+01  -1.2001047148984509e+00  -2.7379452543136075e+01  -5.1414632973906123e+01  -4.4161256304026487e+01  -4.1703292615554695e+01  -5.7056670820847186e+00  -4.3861846963420618e+01  -4.8884144427092004e+01  -5.6784406521223083e+00  -3.5297877823288893e+01  -3.8388689627648283e+01  -2.8379278899172302e+01  -3.3182434253514486e+01  -5.0188302686375401e+01  -4.8284810274836559e+01  -4.1574658226665775e+01  -1.4175231162286408e+00  -1.0873881497805027e+00  -4.7204496326445330e+01  -5.2395001118469700e+01  -3.7810414531278923e+01  -2.7297956086279797e+01  -2.8900373224826087e+01  -4.2513185731798671e+01  -5.2414842995930968e+01  -3.9782494725234187e+01  -3.8950060284853066e+01  -5.0269250136410498e+01  -1.9064187295355602e+01  -5.1463543162300958e+01  -4.6516301569646039e+01  -4.5511504334068974e+01  -3.8639736238529551e+01  -4.6341422760881805e+01  -3.2900584491663480e+01  -5.2453667513541852e+01  -4.2888203888393029e+01  -2.8041004294345395e+01  -3.6068423594009708e+01  -3.0917632287487187e+01  -5.1554515393685001e+01  -2.7780867653633862e+01  -3.1226002740887580e+01  -3.6387454283767433e+01  -4.9643376206191697e+01  -4.5892394950461899e+01  -3.7277540983374891e+01  1.1409647465336492e+00  -4.2159014840749045e+01  -3.0278013718151119e+01  -3.9334303426931392e+01  -2.2475777669264208e+01  -4.3074528914474131e-01  -4.6023646147581132e+01  -3.5185490385364908e+01  -3.5728138364460079e+01  -2.7275583234787693e+01  -4.9255377780507047e+01  -5.1318335305518779e+01  -4.8437653140460370e+01  -4.2276179679268544e+01  -8.7648938730518489e-01  -3.7332164011813717e+01  -2.4720719524454317e+01  -3.6149914944315391e+01  -4.1367376030159534e+01  -4.7018863667073070e+01  -3.2603973650153414e+01  -3.5439725337574401e+01  -3.0315184634830647e+01  -3.0598607973099966e+01  -5.1545920069457708e+01  -4.7099300821973188e+01  -5.8466388587744618e+00  -2.9377411141348315e+01  -3.4295957987355003e+01  -4.7974421262133120e+01  -3.7008982623683977e+01  -3.1876323553078898e+01  -2.1325053561377807e+01  -4.3181530376046801e+01  -2.5190607597095521e+01  -3.3169559790654425e+01  -4.7304620855116681e+01  -4.3390603251305762