<?xml version="1.0"?>
<VTKFile type="UnstructuredGrid"  version="0.1"  >
<UnstructuredGrid>
<Piece  NumberOfPoints="12123" NumberOfCells="23692">
<Points>
<DataArray  type="Float64"  NumberOfComponents="3"  format="ascii">0 0 0  0 0.41 0  2.2 0 0  2.2 0.41 0  0.2 0.15 0  0.2 0.25 0  0 0.4000000000000008 0  0 0.3900000000000259 0  0 0.3800000000000606 0  0 0.3700000000000953 0  0 0.3600000000001082 0  0 0.3500000000001241 0  0 0.3400000000001558 0  0 0.3300000000001905 0  0 0.3200000000002133 0  0 0.3100000000002381 0  0 0.3000000000002728 0  0 0.2900000000003075 0  0 0.2800000000003204 0  0 0.2700000000003551 0  0 0.2600000000003897 0  0 0.2500000000004243 0  0 0.2400000000004419 0  0 0.2300000000004503 0  0 0.2200000000004849 0  0 0.2100000000005195 0  0 0.2000000000005203 0  0 0.1900000000004874 0  0 0.1800000000004544 0  0 0.1700000000004476 0  0 0.1600000000004316 0  0 0.1500000000003986 0  0 0.1400000000003795 0  0 0.1300000000003759 0  0 0.1200000000003428 0  0 0.1100000000003098 0  0 0.1000000000002768 0  0 0.09000000000024383 0  0 0.08000000000021068 0  0 0.07000000000020096 0  0 0.0600000000001879 0  0 0.05000000000015475 0  0 0.04000000000012166 0  0 0.03000000000008857 0  0 0.02000000000005536 0  0 0.01000000000002221 0  0.009999999999981288 0 0  0.01999999999996251 0 0  0.02999999999994353 0 0  0.0399999999999241 0 0  0.04999999999990434 0 0  0.05999999999988457 0 0  0.06999999999986481 0 0  0.07999999999984503 0 0  0.08999999999982462 0 0  0.09999999999980327 0 0  0.1099999999997819 0 0  0.1199999999997606 0 0  0.1299999999997423 0 0  0.1399999999997245 0 0  0.1499999999997079 0 0  0.1599999999996929 0 0  0.1699999999996795 0 0  0.179999999999666 0 0  0.1899999999996523 0 0  0.1999999999996356 0 0  0.209999999999619 0 0  0.2199999999996025 0 0  0.2299999999995879 0 0  0.2399999999995744 0 0  0.249999999999561 0 0  0.2599999999995468 0 0  0.2699999999995302 0 0  0.2799999999995105 0 0  0.2899999999994876 0 0  0.2999999999994596 0 0  0.3099999999994304 0 0  0.3199999999994012 0 0  0.3299999999993699 0 0  0.3399999999993343 0 0  0.3499999999992988 0 0  0.3599999999992632 0 0  0.3699999999992334 0 0  0.3799999999992042 0 0  0.3899999999991749 0 0  0.3999999999991457 0 0  0.4099999999991165 0 0  0.4199999999990872 0 0  0.429999999999058 0 0  0.4399999999990288 0 0  0.4499999999989995 0 0  0.4599999999989703 0 0  0.4699999999989373 0 0  0.4799999999989018 0 0  0.4899999999988663 0 0  0.4999999999988318 0 0  0.5099999999988025 0 0  0.5199999999987733 0 0  0.529999999998744 0 0  0.5399999999987057 0 0  0.5499999999986639 0 0  0.559999999998622 0 0  0.5699999999985838 0 0  0.5799999999985546 0 0  0.5899999999985253 0 0  0.5999999999984962 0 0  0.6099999999984668 0 0  0.6199999999984376 0 0  0.6299999999984084 0 0  0.6399999999983792 0 0  0.6499999999983499 0 0  0.6599999999983207 0 0  0.6699999999982915 0 0  0.6799999999982622 0 0  0.6899999999982329 0 0  0.6999999999982038 0 0  0.7099999999981744 0 0  0.7199999999981452 0 0  0.7299999999981162 0 0  0.7399999999980867 0 0  0.7499999999980577 0 0  0.7599999999980284 0 0  0.769999999997999 0 0  0.7799999999979699 0 0  0.7899999999979407 0 0  0.7999999999979114 0 0  0.8099999999978793 0 0  0.8199999999978375 0 0  0.8299999999977956 0 0  0.8399999999977538 0 0  0.8499999999977218 0 0  0.8599999999976925 0 0  0.8699999999976633 0 0  0.8799999999976341 0 0  0.8899999999976047 0 0  0.8999999999975756 0 0  0.9099999999975463 0 0  0.9199999999975172 0 0  0.9299999999974878 0 0  0.9399999999974586 0 0  0.9499999999974295 0 0  0.9599999999974002 0 0  0.969999999997371 0 0  0.9799999999973418 0 0  0.9899999999973124 0 0  0.9999999999972872 0 0  1.009999999997271 0 0  1.019999999997246 0 0  1.029999999997217 0 0  1.039999999997188 0 0  1.049999999997163 0 0  1.059999999997159 0 0  1.069999999997144 0 0  1.079999999997114 0 0  1.089999999997085 0 0  1.099999999997056 0 0  1.109999999997077 0 0  1.119999999997098 0 0  1.12999999999712 0 0  1.139999999997141 0 0  1.149999999997162 0 0  1.159999999997205 0 0  1.169999999997248 0 0  1.179999999997269 0 0  1.18999999999729 0 0  1.199999999997312 0 0  1.209999999997333 0 0  1.219999999997354 0 0  1.229999999997375 0 0  1.239999999997403 0 0  1.249999999997449 0 0  1.259999999997482 0 0  1.269999999997503 0 0  1.279999999997525 0 0  1.289999999997546 0 0  1.299999999997567 0 0  1.309999999997589 0 0  1.31999999999761 0 0  1.329999999997648 0 0  1.339999999997694 0 0  1.349999999997717 0 0  1.359999999997738 0 0  1.369999999997759 0 0  1.379999999997781 0 0  1.389999999997802 0 0  1.399999999997823 0 0  1.409999999997846 0 0  1.419999999997893 0 0  1.42999999999793 0 0  1.439999999997952 0 0  1.449999999997973 0 0  1.459999999997994 0 0  1.469999999998015 0 0  1.479999999998037 0 0  1.489999999998058 0 0  1.499999999998091 0 0  1.509999999998137 0 0  1.519999999998165 0 0  1.529999999998186 0 0  1.539999999998207 0 0  1.549999999998229 0 0  1.55999999999825 0 0  1.569999999998271 0 0  1.579999999998293 0 0  1.589999999998336 0 0  1.599999999998378 0 0  1.6099999999984 0 0  1.619999999998421 0 0  1.629999999998442 0 0  1.639999999998464 0 0  1.649999999998485 0 0  1.659999999998506 0 0  1.669999999998528 0 0  1.679999999998549 0 0  1.68999999999857 0 0  1.699999999998592 0 0  1.709999999998634 0 0  1.719999999998677 0 0  1.729999999998699 0 0  1.73999999999872 0 0  1.749999999998741 0 0  1.759999999998762 0 0  1.769999999998784 0 0  1.779999999998805 0 0  1.789999999998833 0 0  1.799999999998879 0 0  1.809999999998912 0 0  1.819999999998933 0 0  1.829999999998954 0 0  1.839999999998976 0 0  1.849999999998997 0 0  1.859999999999018 0 0  1.86999999999904 0 0  1.879999999999078 0 0  1.889999999999124 0 0  1.899999999999147 0 0  1.909999999999168 0 0  1.919999999999189 0 0  1.929999999999211 0 0  1.939999999999232 0 0  1.949999999999253 0 0  1.959999999999276 0 0  1.969999999999323 0 0  1.97999999999936 0 0  1.989999999999381 0 0  1.999999999999387 0 0  2.009999999999383 0 0  2.019999999999379 0 0  2.029999999999375 0 0  2.039999999999371 0 0  2.049999999999391 0 0  2.059999999999437 0 0  2.069999999999521 0 0  2.079999999999617 0 0  2.089999999999663 0 0  2.099999999999694 0 0  2.109999999999689 0 0  2.119999999999686 0 0  2.129999999999681 0 0  2.139999999999722 0 0  2.149999999999776 0 0  2.159999999999873 0 0  2.169999999999948 0 0  2.179999999999994 0 0  2.190000000000004 0 0  2.2 0.009999999999981952 0  2.2 0.01999999999996097 0  2.2 0.02999999999994221 0  2.2 0.03999999999992531 0  2.2 0.04999999999991126 0  2.2 0.05999999999988534 0  2.2 0.06999999999985251 0  2.2 0.07999999999982024 0  2.2 0.08999999999980195 0  2.2 0.0999999999997695 0  2.2 0.1099999999997346 0  2.2 0.1199999999997104 0  2.2 0.1299999999996865 0  2.2 0.1399999999996516 0  2.2 0.1499999999996167 0  2.2 0.1599999999995818 0  2.2 0.169999999999564 0  2.2 0.1799999999995553 0  2.2 0.1899999999995205 0  2.2 0.1999999999994856 0  2.2 0.2099999999994845 0  2.2 0.2199999999995173 0  2.2 0.2299999999995501 0  2.2 0.2399999999995566 0  2.2 0.2499999999995723 0  2.2 0.259999999999605 0  2.2 0.2699999999996239 0  2.2 0.2799999999996273 0  2.2 0.2899999999996601 0  2.2 0.2999999999996928 0  2.2 0.3099999999997256 0  2.2 0.3199999999997584 0  2.2 0.3299999999997912 0  2.2 0.3399999999998008 0  2.2 0.3499999999998136 0  2.2 0.3599999999998464 0  2.2 0.3699999999998793 0  2.2 0.3799999999999122 0  2.2 0.3899999999999451 0  2.2 0.3999999999999779 0  2.190000000000005 0.41 0  2.180000000000009 0.41 0  2.170000000000015 0.41 0  2.160000000000019 0.41 0  2.150000000000024 0.41 0  2.140000000000029 0.41 0  2.130000000000033 0.41 0  2.120000000000038 0.41 0  2.110000000000043 0.41 0  2.100000000000048 0.41 0  2.090000000000087 0.41 0  2.080000000000142 0.41 0  2.070000000000197 0.41 0  2.06000000000024 0.41 0  2.050000000000245 0.41 0  2.040000000000249 0.41 0  2.030000000000254 0.41 0  2.020000000000259 0.41 0  2.010000000000264 0.41 0  2.000000000000268 0.41 0  1.990000000000273 0.41 0  1.980000000000278 0.41 0  1.970000000000283 0.41 0  1.960000000000287 0.41 0  1.950000000000292 0.41 0  1.940000000000302 0.41 0  1.930000000000332 0.41 0  1.920000000000362 0.41 0  1.910000000000392 0.41 0  1.900000000000422 0.41 0  1.890000000000452 0.41 0  1.880000000000482 0.41 0  1.870000000000503 0.41 0  1.860000000000508 0.41 0  1.850000000000529 0.41 0  1.840000000000559 0.41 0  1.830000000000588 0.41 0  1.820000000000618 0.41 0  1.810000000000648 0.41 0  1.800000000000678 0.41 0  1.790000000000708 0.41 0  1.780000000000719 0.41 0  1.770000000000725 0.41 0  1.760000000000755 0.41 0  1.750000000000785 0.41 0  1.740000000000815 0.41 0  1.730000000000845 0.41 0  1.720000000000875 0.41 0  1.710000000000905 0.41 0  1.700000000000931 0.41 0  1.690000000000936 0.41 0  1.680000000000951 0.41 0  1.670000000000981 0.41 0  1.660000000001048 0.41 0  1.650000000001128 0.41 0  1.640000000001208 0.41 0  1.630000000001275 0.41 0  1.620000000001305 0.41 0  1.610000000001321 0.41 0  1.600000000001325 0.41 0  1.590000000001351 0.41 0  1.580000000001384 0.41 0  1.57000000000144 0.41 0  1.560000000001495 0.41 0  1.55000000000155 0.41 0  1.540000000001588 0.41 0  1.530000000001618 0.41 0  1.520000000001623 0.41 0  1.510000000001634 0.41 0  1.500000000001664 0.41 0  1.490000000001708 0.41 0  1.480000000001763 0.41 0  1.470000000001818 0.41 0  1.460000000001871 0.41 0  1.450000000001901 0.41 0  1.440000000001922 0.41 0  1.430000000001926 0.41 0  1.420000000001947 0.41 0  1.410000000001977 0.41 0  1.400000000002031 0.41 0  1.390000000002086 0.41 0  1.380000000002141 0.41 0  1.370000000002184 0.41 0  1.360000000002214 0.41 0  1.350000000002224 0.41 0  1.340000000002231 0.41 0  1.33000000000226 0.41 0  1.320000000002299 0.41 0  1.310000000002354 0.41 0  1.300000000002394 0.41 0  1.290000000002424 0.41 0  1.280000000002431 0.41 0  1.270000000002435 0.41 0  1.26000000000244 0.41 0  1.250000000002457 0.41 0  1.240000000002487 0.41 0  1.230000000002536 0.41 0  1.22000000000259 0.41 0  1.21000000000262 0.41 0  1.200
[...]
<PointData  Scalars="f_13-1"> 
<DataArray  type="Float64"  Name="f_13-1"  format="ascii">6.3992701050632469e-02  6.2268234927655680e-02  -1.3032390873654035e-06  -2.7518292664787952e-06  -1.1704057117112976e-02  -1.2423799455902922e-02  6.2244784820982245e-02  6.2209302194352743e-02  6.2231403703469114e-02  6.2355792355766097e-02  6.2601154446924670e-02  6.2999665518449113e-02  6.3562423151550640e-02  6.4307794045884797e-02  6.5237854052005814e-02  6.6348451676375819e-02  6.7626648018177235e-02  6.9041141785124230e-02  7.0551185099518368e-02  7.2122316259177505e-02  7.3672457140085953e-02  7.5142025412418920e-02  7.6481702984948552e-02  7.7605595463150212e-02  7.8457216136819580e-02  7.9008276406350705e-02  7.9141853450710328e-02  7.9004721680503695e-02  7.8465356511835074e-02  7.7625928802629376e-02  7.6518974654699354e-02  7.5237803475364975e-02  7.3830785490128878e-02  7.2343148411623745e-02  7.0890906635957207e-02  6.9494481438226313e-02  6.8215684674054172e-02  6.7083524241470432e-02  6.6129650790926364e-02  6.5355149197686799e-02  6.4764495233324379e-02  6.4347666344527363e-02  6.4085827989040861e-02  6.3954923741072589e-02  6.3932010364211339e-02  6.3969542268361532e-02  6.3875405486510592e-02  6.3790640077941607e-02  6.3688840736523686e-02  6.3547840608004599e-02  6.3351083716305073e-02  6.3088285978198516e-02  6.2740163404890692e-02  6.2306978029336282e-02  6.1751981006974085e-02  6.1087669386521611e-02  6.0259499033085889e-02  5.9308539428314808e-02  5.8165744391017488e-02  5.6868589044188018e-02  5.5396877485218446e-02  5.3763337798841702e-02  5.1988531668032960e-02  5.0084991684067839e-02  4.8100530451811965e-02  4.6053448792374441e-02  4.3996748845024705e-02  4.1973678114350516e-02  3.9999225161952867e-02  3.8134181532875649e-02  3.6399396711756848e-02  3.4789473696142756e-02  3.3353139012082693e-02  3.2041476048556672e-02  3.0928254050156898e-02  2.9961101094597736e-02  2.9136200951295547e-02  2.8441228216194440e-02  2.7873191913165715e-02  2.7408389608112108e-02  2.7050885543477059e-02  2.6767556516064960e-02  2.6555850260794631e-02  2.6411975083729076e-02  2.6306676146153712e-02  2.6252031106838977e-02  2.6225497373769651e-02  2.6223257975523558e-02  2.6242653149492149e-02  2.6272815703368223e-02  2.6314952875276625e-02  2.6360371934286319e-02  2.6408242684630479e-02  2.6455132281673791e-02  2.6497947261096472e-02  2.6536416090313202e-02  2.6566231827636906e-02  2.6589155149901046e-02  2.6603760596035256e-02  2.6607947438419630e-02  2.6601263014761241e-02  2.6586728074915050e-02  2.6560657298318677e-02  2.6523911891257631e-02  2.6476776852239380e-02  2.6420169779761367e-02  2.6352439028192693e-02  2.6275979529338998e-02  2.6189662541548558e-02  2.6094233996851221e-02  2.5990487148708444e-02  2.5878765999431074e-02  2.5759152119510399e-02  2.5632600754603930e-02  2.5499378144277010e-02  2.5359237875910746e-02  2.5213398873583377e-02  2.5062162059151436e-02  2.4905820225847593e-02  2.4745062024191775e-02  2.4579410568642875e-02  2.4410466134421622e-02  2.4237642758746718e-02  2.4062089522774693e-02  2.3882797092843373e-02  2.3701625573610056e-02  2.3518022446786246e-02  2.3331972595383881e-02  2.3144483080657193e-02  2.2955139108535270e-02  2.2764665967248285e-02  2.2572855702806618e-02  2.2380055788028562e-02  2.2186454475744837e-02  2.1992176027083234e-02  2.1797371443958182e-02  2.1602090002704771e-02  2.1406580912585387e-02  2.1210842286200515e-02  2.1015006404176514e-02  2.0819177117147848e-02  2.0623446934915059e-02  2.0427842341995569e-02  2.0232442566041311e-02  2.0037324240062247e-02  1.9842527869614990e-02  1.9648126083809402e-02  1.9454159497508852e-02  1.9260542905174018e-02  1.9067508636597875e-02  1.8874935319006209e-02  1.8682933534501261e-02  1.8491467133092462e-02  1.8300639563508744e-02  1.8110345302846567e-02  1.7920680961177469e-02  1.7731671219548616e-02  1.7543300311343994e-02  1.7355444466977666e-02  1.7168466752015065e-02  1.6981956543459995e-02  1.6796199658288710e-02  1.6611084822385679e-02  1.6426573336488132e-02  1.6242830687533634e-02  1.6059650441453827e-02  1.5877193565246268e-02  1.5695371453445073e-02  1.5514220952951848e-02  1.5333669431714278e-02  1.5153798505563944e-02  1.4974619017079737e-02  1.4795954992768852e-02  1.4617985835791105e-02  1.4440687103164132e-02  1.4263888640204572e-02  1.4087799027330466e-02  1.3912314811601326e-02  1.3737420885744303e-02  1.3562991341426654e-02  1.3389334819051730e-02  1.3216096359043200e-02  1.3043516449818437e-02  1.2871466006975096e-02  1.2699943910243748e-02  1.2529027710805059e-02  1.2358639287448018e-02  1.2188694655822289e-02  1.2019319684965363e-02  1.1850467641982160e-02  1.1682084505998927e-02  1.1514296538499389e-02  1.1346793046764071e-02  1.1179992919620301e-02  1.1013554185242922e-02  1.0847610710493321e-02  1.0682070764985490e-02  1.0517013713285537e-02  1.0352385228678537e-02  1.0188217579651861e-02  1.0024438331977388e-02  9.8611354147674982e-03  9.6982033016307576e-03  9.5356229794581714e-03  9.3735145379196562e-03  9.2117543002272085e-03  9.0503921236215496e-03  8.8894217308644035e-03  8.7287845460285486e-03  8.5685158457599313e-03  8.4085863091814834e-03  8.2490690410493752e-03  8.0898050164435187e-03  7.9309543999383555e-03  7.7723834742661185e-03  7.6141250681518498e-03  7.4562367722389392e-03  7.2986219356874112e-03  7.1413249691937158e-03  6.9842933119243361e-03  6.8275700370394174e-03  6.6711445636693078e-03  6.5149923869434615e-03  6.3591155871514857e-03  6.2035003868146773e-03  6.0481464716060666e-03  5.8930587132032062e-03  5.7382415953949580e-03  5.5836465299571487e-03  5.4292923695236604e-03  5.2751791597783308e-03  5.1213110942195600e-03  4.9676715379338553e-03  4.8142462436393529e-03  4.6610271505726410e-03  4.5080518009040669e-03  4.3552597279268891e-03  4.2026860225957158e-03  4.0503161391495079e-03  3.8981303195669641e-03  3.7461564284697788e-03  3.5943434959397865e-03  3.4427309547922958e-03  3.2912898500221991e-03  3.1400335599539226e-03  2.9889381928371486e-03  2.8380102277425468e-03  2.6872502780779994e-03  2.5366529952419747e-03  2.3862007725101108e-03  2.2359139187499754e-03  2.0857668975021865e-03  1.9357690066126327e-03  1.7859011289885623e-03  1.6361800673306954e-03  1.4865931648492539e-03  1.3371351282401973e-03  1.1878126722302401e-03  1.0386002771181279e-03  8.8951287524020330e-04  7.4054668222026565e-04  5.9168585511893226e-04  4.4294785054917814e-04  2.9431634001855577e-04  1.4586468454331079e-04  -8.8064075954281802e-07  -1.1941147620384258e-06  -1.3817153164009031e-06  -1.5302251694708793e-06  -1.5624959752455508e-06  -1.4935352599041722e-06  -1.3086620175161802e-06  -9.9897355889939408e-07  -5.6562428225539613e-07  -1.1886066503487088e-09  6.4832854133217941e-07  1.3588744360357622e-06  2.1327073180510380e-06  2.9161216672576012e-06  3.6167005338872236e-06  4.2354809323580461e-06  4.7395658975673636e-06  5.0754820132323274e-06  5.2141044984824096e-06  5.1289111971814785e-06  4.8334840934651153e-06  4.3366807124342575e-06  3.6399255665597027e-06  2.7976589325686323e-06  1.8586301775323557e-06  8.5635954961412925e-07  -1.5945613332001929e-07  -1.1423438512413834e-06  -2.0452141860941502e-06  -2.8244127941676317e-06  -3.4669605321851627e-06  -3.9025217902603288e-06  -4.1653257303525619e-06  -4.2719933711279068e-06  -4.2133245785643865e-06  -3.9747804436231722e-06  -3.6592562418269818e-06  -3.1873900369422048e-06  -2.7390694297306647e-06  -2.0090790747055273e-06  1.4131869269934673e-04  2.8872271292777188e-04  4.3629743248799289e-04  5.8406671293544728e-04  7.3202014794192369e-04  8.8011741473922086e-04  1.0283722925148043e-03  1.1767837743812232e-03  1.3253312442031632e-03  1.4740708250884442e-03  1.6229357550504569e-03  1.7719793932144297e-03  1.9211663740186333e-03  2.0705280742458042e-03  2.2200477762634664e-03  2.3697377537029657e-03  2.5195923548034754e-03  2.6696182120145057e-03  2.8198196456391419e-03  2.9702042141346750e-03  3.1207614802371158e-03  3.2715203279442633e-03  3.4224338994830682e-03  3.5735902358800730e-03  3.7248866825630197e-03  3.8764265410837604e-03  4.0281633147524658e-03  4.1800658918086349e-03  4.3322373716720890e-03  4.4846061374738946e-03  4.6371704149347388e-03  4.7899785311618344e-03  4.9430112556363903e-03  5.0962562199852474e-03  5.2497672783442702e-03  5.4035120503329384e-03  5.5575171036843039e-03  5.7117438792020263e-03  5.8662729075494528e-03  6.0210054361982167e-03  6.1760810773815768e-03  6.3313882177389435e-03  6.4869602873818396e-03  6.6428307114432409e-03  6.7990038852047711e-03  6.9554902546326439e-03  7.1122186650437978e-03  7.2693071707110035e-03  7.4266591803542172e-03  7.5844173510732568e-03  7.7424627301179187e-03  7.9008217965222463e-03  8.0595344058483117e-03  8.2185968061996434e-03  8.3779524593646671e-03  8.5378187041871469e-03  8.6979300136551772e-03  8.8584518395501809e-03  9.0193800814397356e-03  9.1806390572198530e-03  9.3423389089279073e-03  9.5044578874458677e-03  9.6669910359150520e-03  9.8298797032911889e-03  9.9932148508137513e-03  1.0157023035950074e-02  1.0321269168522931e-02  1.0485984610456417e-02  1.0651110302489768e-02  1.0816699283948170e-02  1.0982837363401499e-02  1.1149401185598432e-02  1.1316457710424898e-02  1.1484052567831362e-02  1.1652098195100867e-02  1.1820686607951651e-02  1.1989836818781109e-02  1.2159479482853361e-02  1.2329684182979916e-02  1.2500407473211104e-02  1.2671725882669561e-02  1.2843544166182138e-02  1.3016011214093019e-02  1.3189025852521654e-02  1.3362652950652192e-02  1.3536848743359172e-02  1.3711657975980666e-02  1.3887151252200001e-02  1.4063180451803532e-02  1.4239811415503565e-02  1.4417084769696218e-02  1.4595090934649238e-02  1.4773590500533019e-02  1.4952839768486079e-02  1.5132804237153822e-02  1.5313279460306519e-02  1.5494513119855811e-02  1.5676410167235349e-02  1.5858978321424518e-02  1.6042086627711276e-02  1.6226026185696324e-02  1.6410568744304462e-02  1.6595781363592133e-02  1.6781700495940827e-02  1.6968271101728785e-02  1.7155509615178598e-02  1.7343299233395233e-02  1.7531801519520974e-02  1.7720978989296116e-02  1.7910803378601715e-02  1.8101187079311850e-02  1.8292161061097614e-02  1.8483718238091137e-02  1.8675901392477864e-02  1.8868520426064250e-02  1.9061726220830105e-02  1.9255420133404696e-02  1.9449480937823779e-02  1.9643983006927376e-02  1.9838890758643098e-02  2.0034068606015223e-02  2.0229570777865188e-02  2.0425246539868925e-02  2.0621061681625336e-02  2.0816997393335906e-02  2.1012890206712639e-02  2.1208746899883051e-02  2.1404396386680114e-02  2.1599770734331305e-02  2.1794792602858187e-02  2.1989259888817909e-02  2.2183136011945818e-02  2.2376294987150332e-02  2.2568366512258391e-02  2.2759719061277377e-02  2.2949247694363534e-02  2.3137669371638046e-02  2.3324327075714080e-02  2.3509200564956867e-02  2.3691871872241629e-02  2.3872245909338279e-02  2.4050128926377045e-02  2.4224657330857737e-02  2.4396712833614748e-02  2.4564523028713314e-02  2.4728827178716432e-02  2.4889543431555118e-02  2.5044774754985170e-02  2.5196050853791459e-02  2.5341698338460728e-02  2.5482080624756234e-02  2.5615878518735306e-02  2.5744424329866265e-02  2.5865363018019907e-02  2.5979695027883134e-02  2.6086552172623203e-02  2.6186058632308672e-02  2.6277152043982857e-02  2.6359683334572656e-02  2.6435360679707361e-02  2.6501627763618290e-02  2.6559481881846803e-02  2.6607755451822930e-02  2.6649155165431912e-02  2.6681164864528269e-02  2.6705126773848429e-02  2.6723565591165170e-02  2.6733395716039592e-02  2.6738397246164194e-02  2.6737700239244742e-02  2.6734680895489263e-02  2.6731104967408898e-02  2.6727014199448271e-02  2.6727245382044226e-02  2.6732224148401405e-02  2.6747647936562750e-02  2.6775880208803657e-02  2.6823475761743418e-02  2.6895362778838680e-02  2.6991456279423048e-02  2.7133134001767881e-02  2.7309160582921661e-02  2.7544789890580790e-02  2.7832643192232002e-02  2.8196088171117132e-02  2.8638767162436553e-02  2.9167923263625994e-02  2.9804265409903007e-02  3.0544804498352118e-02  3.1406911602554627e-02  3.2385596637497176e-02  3.3498973732250088e-02  3.4740807944029423e-02  3.6105724252327991e-02  3.7605998839884344e-02  3.9195265932011954e-02  4.0892730704626290e-02  4.2637944409745804e-02  4.4439167351902606e-02  4.6244471721062344e-02  4.8033778478858619e-02  4.9770033741156516e-02  5.1421996714246014e-02  5.2988638070742056e-02  5.4401843345942467e-02  5.5703659037350417e-02  5.6869550531436858e-02  5.7875573026865676e-02  5.8746573750948904e-02  5.9489837946611973e-02  6.0115964966398892e-02  6.0627118291668981e-02  6.1048515690002761e-02  6.1363720801961119e-02  6.1626090110098466e-02  6.1813731444133053e-02  6.1957166799729686e-02  6.2061216352068280e-02  6.2148319726863674e-02  -8.2769543241201469e-03  3.6077871394750993e-03  2.3829881335392940e-02  5.0265863523689260e-02  7.9544573488110781e-02  1.0699213708909210e-01  1.2552799680917029e-01  1.3218130510915008e-01  1.2481832328733204e-01  1.0624257132886947e-01  7.8917961610501186e-02  4.9883293434366094e-02  2.4296345995018991e-02  4.6172583378842084e-03  -7.2057592113416412e-03  -1.1112920241973323e-02  -7.1030301413197924e-03  -1.7202127610725245e-03  3.3799764008512131e-03  7.6315790401651293e-03  1.1159047804696223e-02  1.3766144937227094e-02  1.4923519657656859e-02  1.3881088345615220e-02  1.1337168942967962e-02  7.8260853927948557e-03  3.5227088678411052e-03  -1.6506755411023861e-03  -6.9713493431279566e-03  -1.1572039692297744e-02  3.0309999353404060e-02  8.3475059354000576e-03  1.2833117474332219e-02  2.3843888527788404e-02  4.2898373295056401e-03  1.6637883154221753e-02  2.0065491736724127e-02  2.8053845049405678e-02  2.2249748582340747e-03  1.0523933398019780e-02  6.2636971370086817e-03  6.5634730154784928e-03  1.0142016227726152e-02  2.6027575484499914e-03  1.4656064179599098e-02  1.4676108059356862e-02  2.4368013545619117e-02  2.8790558706577863e-02  2.5777771138041441e-02  2.1586243013034884e-02  1.8487722862827190e-02  2.4127652547226468e-02  1.8099999978948567e-02  2.2017623908893332e-02  2.8743812957740294e-02  2.5268425342472148e-02  1.1910436013483372e-02  4.9475387097037173e-03  8.9126852795904186e-03  1.2151970940035905e-02  4.7571512909161482e-03  8.1214769252847333e-03  2.8404055962084181e-02  1.6448826366457014e-02  2.3577969493887820e-02  6.2614274984617427e-02  3.4651692535146083e-03  6.4651278938810314e-02  1.6302559982596346e-02  1.4183669275511933e-03  2.7935159496495200e-02  7.4669940107490399e-03  1.3595299696148311e-03  2.0291201444085846e-02  2.6976281955657804e-02  2.5548117884603146e-02  2.3750507869969975e-02  2.0041020407914729e-02  2.6727184814953633e-02  1.1359659574341209e-02  1.2701895420778621e-03  2.3547385572169750e-02  1.3337258312013971e-02  5.5899751211345517e-03  2.0665434313211183e-02  2.9978126238831181e-02  2.6099218909457281e-02  1.8471077864612311e-02  2.2063044076142797e-02  3.5614463608882548e-03  4.4094922442455373e-02  1.3487584628348634e-02  3.0666439390154543e-03  1.4231483009049325e-02  9.6691727233549161e-03  7.0903154380240318e-03  8.3515005998763034e-02  4.6258877439868715e-02  9.2503953069023280e-03  1.0079674398044946e-02  5.8128448036504276e-03  2.3949692838897887e-03  1.0853531163415479e-02  5.9359962838482850e-03  8.1959384577734246e-02  1.0964798551509410e-03  2.8158777857145129e-02  2.0328490574891882e-02  7.1250015510112823e-03  1.7654557694607744e-02  9.0161004851303239e-03  1.5299691755241086e-02  2.7589032645008095e-02  2.4648333885043852e-02  2.2343528149270025e-02  2.7536572749289202e-02  1.8970484277319549e-02  2.5764541368710571e-02  1.1181230086570152e-02  3.6770623717035972e-03  1.3507202075546246e-02  1.5396202290088139e-02  1.5150043773994506e-02  2.2818220709368707e-03  1.7338328723087854e-02  1.3526492379509241e-02  2.6998758434471692e-02  1.5802593944869180e-02  2.6889786070076173e-02  3.0071958747577777e-02  2.4655185091955752e-02  2.2912900240792761e-02  2.8306693077913898e-02  1.7350478875895678e-02  1.6461871749541120e-02  7.7074533401970367e-03  2.8199954588487158e-02  2.7337801836233570e-02  1.6502897456329397e-02  2.3262300374014777e-02  1.8830182186584894e-02  1.9296675698305992e-02  2.6653050248024477e-02  4.1301003788138582e-03  1.1564046070089345e-02  2.1341364337331071e-02  2.7093391765472107e-02  1.7033391698372927e-02  4.2698873568957109e-03  5.3339442776911697e-03  2.9898562892920460e-02  2.7021715787639889e-02  2.5649843119545681e-02  2.1114181232022251e-02  2.4560644978478648e-02  7.7130828669130982e-03  8.3011096153967987e-03  2.1156638813822234e-02  2.4844038364219931e-02  2.8581584681323900e-02  3.5898985230581250e-02  6.7124092094930669e-03  1.2421348369384204e-02  2.2492358596357950e-02  6.1732802167781847e-02  2.7368170528870979e-02  8.7067449516588908e-04  8.9755413679204771e-03  2.2226086501030921e-03  6.3544019233338273e-02  1.1096575596559086e-02  3.0753692373933776e-03  1.4178796982902652e-02  1.9251798840670162e-02  2.6959961580254158e-02  3.7664399711645688e-02  1.2596532474221796e-02  4.3243003924087224e-03  5.6519602315190593e-03  1.2177641208119178e-02  1.4325528752591596e-02  5.5886734149535995e-02  9.2186314420766441e-03  1.0455786191772379e-02  5.1312319716401060e-03  8.4715446107150628e-03  4.9118779236935568e-03  1.5667960401830168e-02  2.1004287252657770e-02  7.9162789141239891e-04  7.0234292280596994e-02  2.7707790545722182e-02  1.7992849426151005e-03  9.6882657912444204e-03  1.2580058320735435e-02  5.1778267754474014e-02  1.0034738105958197e-02  4.4806422572277139e-03  5.7818482438584846e-02  2.0994380850215086e-02  1.6689492561726284e-02  2.7343781094549307e-02  2.3720521489769674e-02  3.0957593319729786e-03  5.1073477366651862e-03  1.2735963847006754e-02  7.6437063352196577e-02  7.0556230463179131e-02  6.3043791368554364e-03  7.7662962511469409e-04  1.7525506528251682e-02  2.5283030276176108e-02  3.0645425886378211e-02  1.1601888096443268e-02  7.5989158200288724e-04  1.4962918485288593e-02  1.5973012242491196e-02  2.9940685706108007e-03  1.6619070339682719e-02  1.7514137253475265e-03  7.0459015737195842e-03  8.1565689610467191e-03  1.6418088293230434e-02  7.2528390814020852e-03  2.4329484194819121e-02  7.1750806357156289e-04  1.1156851392143292e-02  2.9537391654502348e-02  1.9793119089384550e-02  2.6217006054357388e-02  1.6451066587103555e-03  2.6947390202608511e-02  2.6722096911207222e-02  1.9412417130500573e-02  3.6783131206666697e-03  7.7438343055459668e-03  1.8159578007657533e-02  1.0078074249656591e-01  1.2045709015822062e-02  2.9001627752605359e-02  1.5505701912918628e-02  3.1471147026197070e-02  8.1893214046886653e-02  7.5722854194888011e-03  2.1062375496100100e-02  2.0334486455552886e-02  2.7094538374980475e-02  4.0768993323847631e-03  1.9059147521207221e-03  4.9667535717388385e-03  1.1856828910308027e-02  7.9583843783256059e-02  1.8158912378698329e-02  2.3174733409374697e-02  1.9681325510284130e-02  1.2969068570816582e-02  6.5025342482969420e-03  2.5038002101028585e-02  2.0719944378621572e-02  2.7807350764304732e-02  2.6454057656991169e-02  1.6687540077780243e-03  6.3994398248089883e-03  4.8713283995509629e-02  2.9997829995123175e-02  2.2403678402409061e-02  5.4515250475507173e-03  1.8587007193318378e-02  2.6049547598256083e-02  3.2209522072853540e-02  1.0837297731894685e-02  2.2926669236693783e-02  2.3724034051232138e-02  6.1981184283206817e-03  1.0549594501298830e-02  2.9188252644024634e-03  6.4766005410549264e-04  2.2473294770517686e-02  2.4799110177819706e-02  2.8888929251760290e-02  1.4103676192715223e-02  1.5651900078868408e-02  1.3171491582645758e-02  2.8605268381573585e-02  1.5926303549771072e-02  2.6325764133579934e-03  2.2799295004944851e-02  2.5740246799937482e-02  2.1593000473131636e-02  2.9975870685817346e-02  9.0016990320515751e-03  1.7256195834448634e-02  1.1802275823390324e-02  2.2949815191921064e-02  2.2950200883604610e-02  9.6571719992288724e-03  3.0531325967686662e-03  2.1115038717501897e-02  7.0434745954708273e-03  2.5117952043967943e-02  8.3957894160007606e-03  2.7341305063146769e-02  1.3936970316524570e-02  2.6988864338529352e-02  1.9